#     Step Nr.          Time[fs]        Kin.[a.u.]          Temp[K]            Pot.[a.u.]        Cons Qty[a.u.]        UsedTime[s]
         0            0.000000         0.020027536       263.507834953         0.034615297         0.054642833         0.000000000
         1            0.500000         0.019342163       254.490202405         0.035309154         0.054651317         0.045840372
         2            1.000000         0.019310764       254.077067526         0.035343510         0.054654274         0.010140963
         3            1.500000         0.019978095       262.857331784         0.034672330         0.054650425         0.024976867
         4            2.000000         0.021281961       280.012652057         0.033358137         0.054640098         0.024331943
         5            2.500000         0.023058843       303.391584781         0.031566396         0.054625239         0.018137908
         6            3.000000         0.025074507       329.912229576         0.029534430         0.054608937         0.023963246
         7            3.500000         0.027072096       356.195065934         0.027522484         0.054594580         0.024722641
         8            4.000000         0.028824801       379.255895409         0.025760125         0.054584926         0.030820783
         9            4.500000         0.030178636       397.068670268         0.024402709         0.054581344         0.023973652
        10            5.000000         0.031072435       408.828639203         0.023509911         0.054582347         0.023431815
