       0       0.000         0.034615297         0.028672597         0.017163838         0.025455189         0.054642833
       1       0.500         0.035309154         0.029477546         0.017676701         0.026172511         0.054651317
       2       1.000         0.035343510         0.029636969         0.017781927         0.026230883         0.054654274
       3       1.500         0.034672330         0.029102941         0.017434512         0.025584245         0.054650425
       4       2.000         0.033358137         0.027936114         0.016691796         0.024295296         0.054640098
       5       2.500         0.031566396         0.026300153         0.015707844         0.022529853         0.054625239
       6       3.000         0.029534430         0.024430696         0.014702577         0.020525739         0.054608937
       7       3.500         0.027522484         0.022586443         0.013913271         0.018543803         0.054594580
       8       4.000         0.025760125         0.020995556         0.013541590         0.016814278         0.054584926
       9       4.500         0.024402709         0.019812108         0.013710869         0.015493190         0.054581344
      10       5.000         0.023509911         0.019094291         0.014445332         0.014640563         0.054582347
