      18
 i =        0, time =        0.000, E =         0.0346152972
  C         0.0454417481        0.0411805599       -0.0179949834
  H        -0.0012663527       -0.0096777490       -0.0040814833
  H        -0.0053309295       -0.0190067013        0.0151454977
  C        -0.0295090168       -0.0131184843       -0.0096541941
  H        -0.0074891782        0.0003628683        0.0003983590
  H        -0.0046681312       -0.0034759422        0.0140887298
  C        -0.0068183341        0.0314719589       -0.0794384342
  H        -0.0180951634       -0.0010538753       -0.0059126398
  H        -0.0104830983       -0.0047627436        0.0044160074
  C         0.0474256249       -0.0077779169        0.0915731154
  H        -0.0043860711       -0.0012002159       -0.0065540963
  H        -0.0002073538       -0.0164330539       -0.0050328756
  C         0.0124453714        0.0158288456       -0.0439157376
  H        -0.0109303794        0.0070294058        0.0158859995
  H        -0.0007579779        0.0201495733       -0.0019498031
  C        -0.0094646664       -0.0343732893        0.0415741761
  H         0.0021769311        0.0032681433       -0.0134106923
  H         0.0019169774       -0.0084113833        0.0048630548
      18
 i =        1, time =        0.500, E =         0.0353091539
  C         0.0437276836        0.0404965767       -0.0161337733
  H         0.0008454129       -0.0097157849       -0.0031937835
  H        -0.0044162536       -0.0177669585        0.0126552236
  C        -0.0343042701       -0.0178247811       -0.0050854062
  H        -0.0060804991        0.0007758068        0.0011106862
  H        -0.0025958907        0.0003194964        0.0085616528
  C        -0.0085000753        0.0340445792       -0.0798450767
  H        -0.0195529840       -0.0027735787       -0.0088747402
  H        -0.0086451837       -0.0073568517        0.0051338872
  C         0.0492310006        0.0000482456        0.0985965018
  H        -0.0052294225       -0.0048892881       -0.0098751063
  H         0.0000797079       -0.0187779812       -0.0060197944
  C         0.0158802333        0.0148349647       -0.0480310325
  H        -0.0132757849        0.0068779601        0.0193545927
  H        -0.0013041020        0.0208791851       -0.0017151566
  C        -0.0098602140       -0.0341723715        0.0402999090
  H         0.0015802923        0.0026650544       -0.0113984381
  H         0.0024203492       -0.0076642733        0.0044598545
      18
 i =        2, time =        1.000, E =         0.0353435101
  C         0.0406098249        0.0383106302       -0.0127992078
  H         0.0031138841       -0.0095937909       -0.0022869639
  H        -0.0031087156       -0.0154233400        0.0088798184
  C        -0.0384643603       -0.0226040245       -0.0004389478
  H        -0.0045312944        0.0011755195        0.0019201199
  H        -0.0004426084        0.0044392656        0.0026540517
  C        -0.0097399562        0.0351618303       -0.0790478616
  H        -0.0204851005       -0.0040159805       -0.0113326860
  H        -0.0069381730       -0.0094623714        0.0057703765
  C         0.0498626124        0.0064585267        0.1025593969
  H        -0.0056737748       -0.0078504673       -0.0120430788
  H         0.0003132553       -0.0199647085       -0.0067401112
  C         0.0178906575        0.0151532188       -0.0497716928
  H        -0.0147766753        0.0060890422        0.0213261059
  H        -0.0014459574        0.0202376870       -0.0015643762
  C        -0.0096131992       -0.0337946135        0.0375721069
  H         0.0006797888        0.0021679146       -0.0087921541
  H         0.0027497921       -0.0064843380        0.0041351039
      18
 i =        3, time =        1.500, E =         0.0346723296
  C         0.0362923806        0.0348043767       -0.0081691469
  H         0.0054060752       -0.0093108871       -0.0014566140
  H        -0.0014964198       -0.0121593104        0.0041020028
  C        -0.0417332723       -0.0271376541        0.0038553335
  H        -0.0029442581        0.0015680410        0.0027742258
  H         0.0016558332        0.0085600430       -0.0031608385
  C        -0.0105144554        0.0345659171       -0.0771738318
  H        -0.0208210716       -0.0046751625       -0.0131399649
  H        -0.0054451679       -0.0108953811        0.0063296208
  C         0.0492287689        0.0110992463        0.1031872387
  H        -0.0056137960       -0.0098970540       -0.0128343379
  H         0.0004656433       -0.0198553378       -0.0071637705
  C         0.0183111479        0.0167328147       -0.0489931676
  H        -0.0152891078        0.0046762731        0.0216689438
  H        -0.0011634535        0.0182768173       -0.0015047175
  C        -0.0088133740       -0.0331484364        0.0336038999
  H        -0.0004425731        0.0017338079       -0.0057946633
  H         0.0029171003       -0.0049381135        0.0038697875
      18
 i =        4, time =        2.000, E =         0.0333581371
  C         0.0310235841        0.0302478794       -0.0025149258
  H         0.0075883043       -0.0088708088       -0.0007940059
  H         0.0003144818       -0.0082373298       -0.0013170116
  C        -0.0438839654       -0.0311024674        0.0074008270
  H        -0.0014219943        0.0019576057        0.0036151949
  H         0.0035669802        0.0123511361       -0.0084269800
  C        -0.0108063137        0.0321107335       -0.0743422936
  H        -0.0205327451       -0.0046945589       -0.0141943367
  H        -0.0042202392       -0.0115225684        0.0068128344
  C         0.0472815201        0.0138032943        0.1003712641
  H        -0.0049759840       -0.0109379376       -0.0121370550
  H         0.0005165133       -0.0184141555       -0.0072746590
  C         0.0171031222        0.0193777165       -0.0457146344
  H        -0.0147477669        0.0027085887        0.0203826744
  H        -0.0004761159        0.0151500467       -0.0015371293
  C        -0.0075941449       -0.0321106780        0.0286620395
  H        -0.0016797247        0.0013026620       -0.0026319549
  H         0.0029444881       -0.0031191585        0.0036401519
      18
 i =        5, time =        2.500, E =         0.0315663965
  C         0.0250777834        0.0249780252        0.0038179788
  H         0.0095350453       -0.0082811132       -0.0003783938
  H         0.0022090388       -0.0039782090       -0.0069650791
  C        -0.0447349687       -0.0341994671        0.0098633661
  H        -0.0000608091        0.0023463962        0.0043843595
  H         0.0051719684        0.0155036867       -0.0127387351
  C        -0.0106057728        0.0277755594       -0.0706534477
  H        -0.0196362545       -0.0040700687       -0.0144467131
  H        -0.0032850170       -0.0112732532        0.0072151128
  C         0.0440254112        0.0145991659        0.0941836970
  H        -0.0037293538       -0.0109810383       -0.0099631526
  H         0.0004550647       -0.0157123674       -0.0070736928
  C         0.0143615261        0.0227670251       -0.0401176327
  H        -0.0131738566        0.0003019488        0.0175974457
  H         0.0005579312        0.0111004255       -0.0016566654
  C        -0.0061219467       -0.0305395672        0.0230435807
  H        -0.0029083513        0.0008029547        0.0004679984
  H         0.0028625614       -0.0011401034        0.0034199734
      18
 i =        6, time =        3.000, E =         0.0295344301
  C         0.0187375651        0.0193718031        0.0104342158
  H         0.0111366223       -0.0075526634       -0.0002700710
  H         0.0040727877        0.0002649584       -0.0124101547
  C        -0.0441648179       -0.0361808372        0.0109955708
  H         0.0010552634        0.0027345203        0.0050268114
  H         0.0063748635        0.0177577224       -0.0157700111
  C        -0.0099119974        0.0216695937       -0.0661811261
  H        -0.0181897971       -0.0028489940       -0.0139063165
  H        -0.0026289842       -0.0101467619        0.0075240038
  C         0.0395233638        0.0137012868        0.0848793613
  H        -0.0018935087       -0.0101270031       -0.0064503792
  H         0.0002821453       -0.0119233341       -0.0065794363
  C         0.0103100785        0.0264855263       -0.0325327619
  H        -0.0106757112       -0.0023921310        0.0135625687
  H         0.0018465626        0.0064412901       -0.0018528541
  C        -0.0045826085       -0.0282911369        0.0170518735
  H        -0.0039995960        0.0001593569        0.0032959220
  H         0.0027077688        0.0008768035        0.0031827835
      18
 i =        7, time =        3.500, E =         0.0275224843
  C         0.0122774898        0.0138164889        0.0169159597
  H         0.0123052632       -0.0066994373       -0.0005048063
  H         0.0057999957        0.0041362697       -0.0172324152
  C        -0.0421230424       -0.0368726442        0.0106547997
  H         0.0018598320        0.0031202055        0.0054957546
  H         0.0071102463        0.0189246918       -0.0172974259
  C        -0.0087345580        0.0140269747       -0.0609704801
  H        -0.0162874911       -0.0011250014       -0.0126414602
  H        -0.0022132473       -0.0082143763        0.0077201161
  C         0.0338983488        0.0114832117        0.0728831063
  H         0.0004574986       -0.0085545240       -0.0018539414
  H         0.0000118473       -0.0073087661       -0.0058263561
  C         0.0052855472        0.0300615880       -0.0234152173
  H        -0.0074421052       -0.0052000195        0.0086251719
  H         0.0032714293        0.0015313667       -0.0021101954
  C        -0.0031656887       -0.0252376684        0.0109741574
  H        -0.0048308587       -0.0006981682        0.0056793250
  H         0.0025194933        0.0028098086        0.0029039071
      18
 i =        8, time =        4.000, E =         0.0257601246
  C         0.0059506015        0.0086789973        0.0228514972
  H         0.0129792545       -0.0057385621       -0.0010901926
  H         0.0073000036        0.0073074882       -0.0210550821
  C        -0.0386365622       -0.0361913021        0.0088135549
  H         0.0023085274        0.0035001556        0.0057562649
  H         0.0073482436        0.0189036443       -0.0172159137
  C        -0.0070949025        0.0051926381       -0.0550408201
  H        -0.0140499810        0.0009703453       -0.0107755970
  H        -0.0019770964       -0.0056154453        0.0077796193
  C         0.0273300613        0.0084368946        0.0587638672
  H         0.0031966660       -0.0064994489        0.0034720375
  H        -0.0003278289       -0.0021971679       -0.0048612841
  C        -0.0002877046        0.0330091127       -0.0133107908
  H        -0.0037287576       -0.0079401065        0.0032006910
  H         0.0046982134       -0.0032537639       -0.0024090051
  C        -0.0020479773       -0.0212863948        0.0050627772
  H        -0.0052977276       -0.0018246141        0.0074961971
  H         0.0023369667        0.0045475294        0.0025621793
      18
 i =        9, time =        4.500, E =         0.0244027085
  C        -0.0000216919        0.0042768016        0.0278631124
  H         0.0131251707       -0.0046903785       -0.0020042803
  H         0.0085012068        0.0095068665       -0.0235718032
  C        -0.0338106923       -0.0341523820        0.0055616478
  H         0.0023820413        0.0038699808        0.0057881777
  H         0.0070964424        0.0176898124       -0.0155456752
  C        -0.0050276575       -0.0044000212       -0.0483929900
  H        -0.0116127566        0.0032786209       -0.0084786495
  H        -0.0018463641       -0.0025476957        0.0076781195
  C         0.0200464174        0.0051225180        0.0431973424
  H         0.0061513288       -0.0042302651        0.0091020209
  H        -0.0006957028        0.0030434679       -0.0037389601
  C        -0.0059310039        0.0348699638       -0.0028146371
  H         0.0001610214       -0.0104364313       -0.0022623020
  H         0.0059884321       -0.0075515890       -0.0027267557
  C        -0.0013774937       -0.0163963413       -0.0004786394
  H        -0.0053249012       -0.0032506606        0.0086830572
  H         0.0021962028        0.0059977329        0.0021412145
      18
 i =       10, time =        5.000, E =         0.0235099114
  C        -0.0054563549        0.0008528594        0.0316325893
  H         0.0127383244       -0.0035783324       -0.0031966546
  H         0.0093526921        0.0105436021       -0.0245688537
  C        -0.0278244510       -0.0308709686        0.0010999593
  H         0.0020875695        0.0042245997        0.0055878831
  H         0.0063984573        0.0153749939       -0.0124299765
  C        -0.0025444883       -0.0142835537       -0.0409595575
  H        -0.0091132044        0.0056271143       -0.0059541446
  H        -0.0017424852        0.0007477111        0.0073951701
  C         0.0122725227        0.0021392439        0.0268597603
  H         0.0091155611       -0.0020226059        0.0145735583
  H        -0.0010396700        0.0080362390       -0.0025177100
  C        -0.0111666239        0.0352104658        0.0075341801
  H         0.0038995899       -0.0125310513       -0.0073202182
  H         0.0070122628       -0.0110413999       -0.0030395989
  C        -0.0012417823       -0.0105480708       -0.0055632524
  H        -0.0048744404       -0.0049748998        0.0092370923
  H         0.0021265201        0.0070940536        0.0016297732
