      18
 i =        0, time =        0.000, E =         0.0346152972
  C         4.4771740290        3.6007430242        1.6203347172
  H         5.2914269130        3.4771217500        2.3360601921
  H         4.6652969305        4.2496225919        0.7169972207
  C         3.2746720958        3.3557269678        1.9885808736
  H         2.4767287195        3.6147763877        1.3124012437
  H         3.0911230531        2.7969380467        2.8728860383
  C         2.7764531924       -0.1188205648        0.6340418265
  H         3.2660025378        0.5542424065        1.3646636991
  H         3.1686867450       -1.1269840028        0.6051915358
  C         2.1055456747        0.3599258832       -0.5186560307
  H         1.8527159579       -0.3243981506       -1.3087959690
  H         1.8996878962        1.4530197400       -0.5805099683
  C         5.1116933639       -2.0515129449       -2.6233265093
  H         5.6433098294       -2.4734497456       -3.5168235713
  H         4.8023478433       -1.0447070313       -2.6095052437
  C         4.8033693772       -2.8078097646       -1.5873221126
  H         4.3144525067       -2.4671592514       -0.6606981313
  H         5.0785902421       -3.8412268455       -1.6697060378
      18
 i =        1, time =        0.500, E =         0.0353091539
  C         4.4750842276        3.6002090043        1.6178008753
  H         5.2835649420        3.4769568511        2.3344949146
  H         4.6581657787        4.2534870183        0.7226698948
  C         3.2746377270        3.3559413270        1.9889252904
  H         2.4728693635        3.6069361611        1.3104285814
  H         3.0868644032        2.7829519565        2.8778025460
  C         2.7786056230       -0.1189734681        0.6334245855
  H         3.2690606204        0.5498727612        1.3767922802
  H         3.1607440382       -1.1249537434        0.5972243274
  C         2.1046591589        0.3588394588       -0.5206015155
  H         1.8458198178       -0.3124805103       -1.3082089353
  H         1.8963429697        1.4563235416       -0.5689043880
  C         5.1128730818       -2.0516607608       -2.6222926243
  H         5.6607121695       -2.4615702841       -3.5199583667
  H         4.7968469150       -1.0484166514       -2.6090577130
  C         4.8057822011       -2.8071630697       -1.5856050548
  H         4.3071683351       -2.4558933915       -0.6722476313
  H         5.0796316591       -3.8427869411       -1.6550307409
      18
 i =        2, time =        1.000, E =         0.0353435101
  C         4.4734460370        3.6000932251        1.6151004070
  H         5.2758070012        3.4755964010        2.3325366341
  H         4.6504911961        4.2551651768        0.7298998252
  C         3.2742490706        3.3559715953        1.9892171861
  H         2.4682617871        3.5991913994        1.3085925918
  H         3.0822863226        2.7690051812        2.8837725861
  C         2.7806702666       -0.1187747657        0.6319827205
  H         3.2697126603        0.5451618203        1.3878288026
  H         3.1517375203       -1.1238287626        0.5898888564
  C         2.1042810909        0.3577535326       -0.5215287153
  H         1.8382801845       -0.3011645090       -1.3088370578
  H         1.8930078514        1.4573166665       -0.5580395582
  C         5.1142168076       -2.0516553641       -2.6217547943
  H         5.6764808916       -2.4488444726       -3.5207115318
  H         4.7911855138       -1.0495570363       -2.6088212365
  C         4.8080931907       -2.8068693001       -1.5834717876
  H         4.3000786225       -2.4442995900       -0.6851997372
  H         5.0809709060       -3.8452901444       -1.6398066479
      18
 i =        3, time =        1.500, E =         0.0346723296
  C         4.4722272565        3.6003731103        1.6122677510
  H         5.2684322314        3.4730554113        2.3302969371
  H         4.6424340784        4.2549454552        0.7382224392
  C         3.2734631619        3.3557684138        1.9895045485
  H         2.4630966239        3.5915912883        1.3069928777
  H         3.0776537780        2.7556046684        2.8900692138
  C         2.7826343179       -0.1182129190        0.6297244649
  H         3.2678439580        0.5399567030        1.3974708102
  H         3.1418772431       -1.1238681500        0.5832634445
  C         2.1044179941        0.3567343088       -0.5213967022
  H         1.8300423792       -0.2908145269       -1.3109471107
  H         1.8897112800        1.4558530848       -0.5480041157
  C         5.1157453046       -2.0514934680       -2.6217309963
  H         5.6904313074       -2.4353693895       -3.5188404671
  H         4.7853461839       -1.0482071241       -2.6087772603
  C         4.8103048971       -2.8069245546       -1.5809504832
  H         4.2930725594       -2.4324390213       -0.6992337393
  H         5.0826485216       -3.8485912615       -1.6240737202
      18
 i =        4, time =        2.000, E =         0.0333581371
  C         4.4713832965        3.6010124482        1.6093507258
  H         5.2617226926        3.4693686940        2.3278780001
  H         4.6341928225        4.2532295007        0.7470498147
  C         3.2722462403        3.3552849601        1.9898317280
  H         2.4575691624        3.5841841285        1.3057345389
  H         3.0732249877        2.7432574900        2.8959768925
  C         2.7844897779       -0.1172940824        0.6266691734
  H         3.2634131717        0.5341762955        1.4054959127
  H         3.1313469246       -1.1252482408        0.5774169080
  C         2.1050633222        0.3558297158       -0.5201989919
  H         1.8211137824       -0.2816824017       -1.3146364606
  H         1.8864720072        1.4519462549       -0.5388501928
  C         5.1174629154       -2.0511587587       -2.6222131900
  H         5.7025003609       -2.4213188795       -3.5143029855
  H         4.7793636882       -1.0446082045       -2.6089184434
  C         4.8124255807       -2.8073221596       -1.5780821244
  H         4.2860120367       -2.4203651033       -0.7139807890
  H         5.0846850936       -3.8525000256       -1.6078646056
      18
 i =        5, time =        2.500, E =         0.0315663965
  C         4.4708597419        3.6019641801        1.6064077268
  H         5.2559469132        3.4645904019        2.3253613588
  H         4.6259902644        4.2504999224        0.7557151287
  C         3.2705760939        3.3544802863        1.9902353418
  H         2.4518667210        3.5770178569        1.3049210588
  H         3.0692351230        2.7324301492        2.9008476107
  C         2.7862336325       -0.1160436126        0.6228460896
  H         3.2564557806        0.5278182109        1.4117743672
  H         3.1202972953       -1.1280462120        0.5724087075
  C         2.1061969644        0.3550676804       -0.5179646672
  H         1.8115728786       -0.2738962167       -1.3198193049
  H         1.8832962925        1.4457735178       -0.5305914346
  C         5.1193571638       -2.0506239202       -2.6231675153
  H         5.7127546654       -2.4069350710       -3.5072573657
  H         4.7733226053       -1.0391450344       -2.6092487740
  C         4.8144678335       -2.8080513972       -1.5749177498
  H         4.2787448198       -2.4081308895       -0.7290517072
  H         5.0870839921       -3.8567926098       -1.5912075614
      18
 i =        6, time =        3.000, E =         0.0295344301
  C         4.4705951856        3.6031738801        1.6035041592
  H         5.2513444446        3.4587930984        2.3227981552
  H         4.6180595339        4.2472808157        0.7635233726
  C         3.2684439337        3.3533224072        1.9907408224
  H         2.4461567969        3.5701403151        1.3046470848
  H         3.0658816819        2.7235105753        2.9041507961
  C         2.7878679528       -0.1145062823        0.6182933111
  H         3.2470820999        0.5209592944        1.4162751181
  H         3.1088434365       -1.1322313848        0.5682883445
  C         2.1077852923        0.3544564224       -0.5147576321
  H         1.8015730687       -0.2674612755       -1.3262281396
  H         1.8801765747        1.4376673353       -0.5232031117
  C         5.1213997352       -2.0498539485       -2.6245361675
  H         5.7213878944       -2.3925141070       -3.4980463369
  H         4.7673501772       -1.0323159296       -2.6097829613
  C         4.8164468600       -2.8090960413       -1.5715153857
  H         4.2711197230       -2.3957978702       -0.7440650370
  H         5.0898351358       -3.8612254865       -1.5741296810
      18
 i =        7, time =        3.500, E =         0.0275224843
  C         4.4705241471        3.6045836482        1.6007083541
  H         5.2481123648        3.4520664211        2.3202017187
  H         4.6106299700        4.2440943128        0.7698045164
  C         3.2658556480        3.3517908596        1.9913598631
  H         2.4405767255        3.5635992628        1.3049916724
  H         3.0633126833        2.7167761328        2.9055134428
  C         2.7893999040       -0.1127451529        0.6130570271
  H         3.2354701200        0.5137498022        1.4190646625
  H         3.0970660748       -1.1376651416        0.5650938286
  C         2.1097818095        0.3539866684       -0.5106739799
  H         1.7913402578       -0.2622724869       -1.3334307095
  H         1.8770915756        1.4280939572       -0.5166244046
  C         5.1235487871       -2.0488104395       -2.6262408115
  H         5.7287074509       -2.3783875005       -3.4871664006
  H         4.7616049731       -1.0246942082       -2.6105451469
  C         4.8183785583       -2.8104328707       -1.5679369132
  H         4.2630024661       -2.3834452416       -0.7586727956
  H         5.0929194772       -3.8655504704       -1.5566601512
      18
 i =        8, time =        4.000, E =         0.0257601246
  C         4.4705799081        3.6061361103        1.5980872537
  H         5.2463944780        3.4445153615        2.3175431646
  H         4.6039141099        4.2414167880        0.7739651691
  C         3.2628323240        3.3498784988        1.9920889444
  H         2.4352255111        3.5574421595        1.3060125261
  H         3.0616186181        2.7123704202        2.9047475987
  C         2.7908416464       -0.1108391556        0.6071910522
  H         3.2218539243        0.5064018757        1.4202986440
  H         3.0850163675       -1.1441096977        0.5628492920
  C         2.1121284221        0.3536355109       -0.5058376055
  H         1.7811637432       -0.2581363535       -1.3408614113
  H         1.8740080343        1.4176212174       -0.5107626450
  C         5.1257524270       -2.0474564605       -2.6281872833
  H         5.7351112379       -2.3649007693       -3.4752251156
  H         4.7562623265       -1.0168840483       -2.6115669972
  C         4.8202775620       -2.8120303496       -1.5642451019
  H         4.2542907601       -2.3711785244       -0.7725816992
  H         5.0963138484       -3.8695297005       -1.5388332886
      18
 i =        9, time =        4.500, E =         0.0244027085
  C         4.4706971258        3.6077782073        1.5957021589
  H         5.2462737203        3.4362581577        2.3147504595
  H         4.5980965331        4.2396384677        0.7755349421
  C         3.2594099693        3.3475923614        1.9929090504
  H         2.4301583666        3.5517157589        1.3077417023
  H         3.0608287724        2.7102908476        2.9018632940
  C         2.7922101140       -0.1088795297        0.6007566267
  H         3.2065088437        0.4991733527        1.4202066619
  H         3.0727233737       -1.1512452481        0.5615620567
  C         2.1147572941        0.3533714878       -0.5003943297
  H         1.7713805863       -0.2547999934       -1.3478648704
  H         1.8708841529        1.4068781107       -0.5054990784
  C         5.1279530956       -2.0457615699       -2.6302712262
  H         5.7410561922       -2.3523910877       -3.4628899778
  H         4.7514978066       -1.0094742721       -2.6128852816
  C         4.8221554146       -2.8138476702       -1.5605010032
  H         4.2449271558       -2.3591363304       -0.7855681773
  H         5.0999957891       -3.8729493458       -1.5206911435
      18
 i =       10, time =        5.000, E =         0.0235099114
  C         4.4708141194        3.6094644742        1.5936048288
  H         5.2477680472        3.4274237913        2.3117111228
  H         4.5933250508        4.2390299907        0.7742041467
  C         3.2556384245        3.3449535050        1.9937865959
  H         2.4253843382        3.5464655690        1.3101831281
  H         3.0609121613        2.7103880500        2.8970660558
  C         2.7935266571       -0.1069653465        0.5938224080
  H         3.1897347849        0.4923482720        1.4190713611
  H         3.0602031803       -1.1586942987        0.5612196329
  C         2.1175932016        0.3531603691       -0.4945049203
  H         1.7623543655       -0.2519841778       -1.3537483034
  H         1.8676746635        1.3965095102       -0.5006956000
  C         5.1300925099       -2.0437065493       -2.6323842381
  H         5.7470209606       -2.3411656346       -3.4508332218
  H         4.7474701781       -1.0029937376       -2.6145390999
  C         4.8240190407       -2.8158343290       -1.5567618477
  H         4.2349083092       -2.3474941381       -0.7974861838
  H         5.1039479779       -3.8756309554       -1.5022855166
