 DBCSR| Multiplication driver                                               BLAS
 DBCSR| Multrec recursion limit                                              512
 DBCSR| Multiplication stack size                                           1000
 DBCSR| Maximum elements for images                                    UNLIMITED
 DBCSR| Randmat seed                                                    12341313
 DBCSR| Multiplication size stacks                                             3


  **** **** ******  **  PROGRAM STARTED AT               2017-06-19 16:15:44.762
 ***** ** ***  *** **   PROGRAM STARTED ON                 scutum.phys.ucl.ac.uk
 **    ****   ******    PROGRAM STARTED BY                                acarof
 ***** **    ** ** **   PROGRAM PROCESS ID                                 29959
  **** **  *******  **  PROGRAM STARTED IN /scratch/grudorff/antoine/GIT/BLUMBER
                                           GER/flavoured-cptk/nonadiabatic/regte
                                           st-fobsh/new

 CP2K| version string:                    CP2K version 4.0 (Development Version)
 CP2K| source code revision number:                                  git:396d69a
 CP2K| cp2kflags: libint fftw3 libxc libderiv_max_am1=5 libint_max_am=6         
 CP2K| is freely available from                            https://www.cp2k.org/
 CP2K| Program compiled at                          Mon 19 Jun 15:30:27 BST 2017
 CP2K| Program compiled on                                 scutum.phys.ucl.ac.uk
 CP2K| Program compiled for                                                local
 CP2K| Data directory path    /scratch/grudorff/antoine/GIT/BLUMBERGER/flavoured
 CP2K| Input file name                                           run_correct.inp

 GLOBAL| Force Environment number                                              1
 GLOBAL| Basis set file name                                           POTENTIAL
 GLOBAL| MM Potential file name                                     MM_POTENTIAL
 GLOBAL| Coordinate file name                                      __STD_INPUT__
 GLOBAL| Force Environment number                                              2
 GLOBAL| Basis set file name                                           POTENTIAL
 GLOBAL| MM Potential file name                                     MM_POTENTIAL
 GLOBAL| Coordinate file name                                      __STD_INPUT__
 GLOBAL| Force Environment number                                              3
 GLOBAL| Basis set file name                                           POTENTIAL
 GLOBAL| MM Potential file name                                     MM_POTENTIAL
 GLOBAL| Coordinate file name                                      __STD_INPUT__
 GLOBAL| Force Environment number                                              4
 GLOBAL| Basis set file name                                           POTENTIAL
 GLOBAL| MM Potential file name                                     MM_POTENTIAL
 GLOBAL| Coordinate file name                                      __STD_INPUT__
 GLOBAL| Method name                                                        CP2K
 GLOBAL| Project name                                                        run
 GLOBAL| Preferred FFT library                                             FFTW3
 GLOBAL| Preferred diagonalization lib.                                       SL
 GLOBAL| Run type                                                             MD
 GLOBAL| All-to-all communication in single precision                          F
 GLOBAL| FFTs using library dependent lengths                                  F
 GLOBAL| Global print level                                                  LOW
 GLOBAL| Total number of message passing processes                             1
 GLOBAL| Number of threads for this process                                    1
 GLOBAL| This output is from process                                           0
 GLOBAL| CPU model name :  Intel(R) Xeon(R) CPU E5-1650 v2 @ 3.50GHz

 MEMORY| system memory details [Kb]
 MEMORY|                        rank 0           min           max       average
 MEMORY| MemTotal             32890520      32890520      32890520      32890520
 MEMORY| MemFree               9255412       9255412       9255412       9255412
 MEMORY| Buffers                  1476          1476          1476          1476
 MEMORY| Cached                5395724       5395724       5395724       5395724
 MEMORY| Slab                   252820        252820        252820        252820
 MEMORY| SReclaimable           200072        200072        200072        200072
 MEMORY| MemLikelyFree        14852684      14852684      14852684      14852684

 MIXED_ENV| Number of created MPI groups:                                      1
 MIXED_ENV| Task to group correspondence:
  (   0 :    0)
          ----------------------------------------------------------------------
 COLVARS| COLVAR INPUT INDEX:        1
 COLVARS| BOND          >>> POINTS:                                    1       2
 COLVARS| INFORMATION ON DEFINED GEOMETRICAL POINTS
 COLVARS|  POINT Nr.     1 OF TYPE: GEO_CENTER
 COLVARS|   ATOMS BUILDING THE GEOMETRICAL POINT
 COLVARS|   ATOM:         1
 COLVARS|   ATOM:         4
 COLVARS|  POINT Nr.     2 OF TYPE: GEO_CENTER
 COLVARS|   ATOMS BUILDING THE GEOMETRICAL POINT
 COLVARS|   ATOM:         7
 COLVARS|   ATOM:        10
          ----------------------------------------------------------------------
          ----------------------------------------------------------------------
 COLVARS| COLVAR INPUT INDEX:        2
 COLVARS| BOND          >>> POINTS:                                    1       2
 COLVARS| INFORMATION ON DEFINED GEOMETRICAL POINTS
 COLVARS|  POINT Nr.     1 OF TYPE: GEO_CENTER
 COLVARS|   ATOMS BUILDING THE GEOMETRICAL POINT
 COLVARS|   ATOM:         1
 COLVARS|   ATOM:         4
 COLVARS|  POINT Nr.     2 OF TYPE: GEO_CENTER
 COLVARS|   ATOMS BUILDING THE GEOMETRICAL POINT
 COLVARS|   ATOM:        13
 COLVARS|   ATOM:        16
          ----------------------------------------------------------------------
          ----------------------------------------------------------------------
 COLVARS| COLVAR INPUT INDEX:        3
 COLVARS| BOND          >>> POINTS:                                    1       2
 COLVARS| INFORMATION ON DEFINED GEOMETRICAL POINTS
 COLVARS|  POINT Nr.     1 OF TYPE: GEO_CENTER
 COLVARS|   ATOMS BUILDING THE GEOMETRICAL POINT
 COLVARS|   ATOM:        13
 COLVARS|   ATOM:        16
 COLVARS|  POINT Nr.     2 OF TYPE: GEO_CENTER
 COLVARS|   ATOMS BUILDING THE GEOMETRICAL POINT
 COLVARS|   ATOM:         7
 COLVARS|   ATOM:        10
          ----------------------------------------------------------------------
 RESTRAINT| Active restraint on COLLECTIVE section Nr.     1. K [a.u.]= 0.005000
 RESTRAINT| Active restraint on COLLECTIVE section Nr.     2. K [a.u.]= 0.005000
 RESTRAINT| Active restraint on COLLECTIVE section Nr.     3. K [a.u.]= 0.005000

 MD| Molecular Dynamics Protocol 
 MD| Ensemble Type                                                           NVE
 MD| Number of Time Steps                                                     10
 MD| Time Step [fs]                                                         0.50
 MD| Temperature [K]                                                      298.00
 MD| Temperature tolerance [K]                                              0.00
 MD| Constraints activated 
 MD| Tolerance for shake                                              0.1000E-05
 MD| Print MD information every                                        1 step(s)
 MD| File type     Print frequency[steps]                             File names
 MD| Coordinates            1                                      run-pos-1.xyz
 MD| Velocities             1                                      run-vel-1.xyz
 MD| Energies               1                                         run-1.ener
 MD| Dump                  20                                      run-1.restart

 ROT| Rotational Analysis Info 
 ROT| Principal axes and moments of inertia in atomic units:
 ROT|                                1                 2                 3
 ROT| EIGENVALUES            0.843381404E+06   0.496764873E+07   0.537535221E+07
 ROT|      X                    -0.156380410      -0.960769790       0.229055841
 ROT|      Y                     0.822510368      -0.255070608      -0.508346023
 ROT|      Z                     0.546828914       0.108905445       0.830131160
 ROT| Numer of Rotovibrational vectors:     6

 Calculation of degrees of freedom
                                                      Number of atoms:        18
                                 Number of Intramolecular constraints:         0
                                 Number of Intermolecular constraints:         0
                                  Invariants(translation + rotations):         6
                                                   Degrees of freedom:        48


 Restraints Information
                                  Number of Intramolecular restraints:         0
                                  Number of Intermolecular restraints:         3

 *** WARNING in motion/thermostat/thermostat_methods.F:280 :: Thermostat ***
 *** for Particles has been defined but the ensemble provided does not   ***
 *** support thermostat for Particles! Ignoring thermostat input.        ***

 ************************** Velocities initialization **************************
 Initial Temperature                                                    263.51 K
 COM velocity:           -0.000000000008      0.000000000007      0.000000000001
 COM position:            7.112120109209      0.740772644082     -0.156915173054
 Angular velocity:       -0.000003192129     -0.000009954429      0.000022729243
 *******************************************************************************

 aom_env%Stt(j,i)   1.0000000000000000       -1.9337013281449100E-002  -5.4855573046847829E-004  -1.9337013281449100E-002   1.0000000000000000       -3.6351651520077167E-004  -5.4855573046847829E-004  -3.6351651520077167E-004   1.0000000000000000     
 TIME=0_Stt   0.0000000000000000        0.0000000000000000        0.0000000000000000        0.0000000000000000        0.0000000000000000        6.0134700169990685E-154   6.0134700169990685E-154   6.0134700169990685E-154   6.0134700169990685E-154
 TIME=0_Stptp   1.0000000000000000       -1.9337013281449100E-002  -5.4855573046847829E-004  -1.9337013281449100E-002   1.0000000000000000       -3.6351651520077167E-004  -5.4855573046847829E-004  -3.6351651520077167E-004   1.0000000000000000     
 NACE_t=0   0.0000000000000000        0.0000000000000000        0.0000000000000000        0.0000000000000000        0.0000000000000000        0.0000000000000000        0.0000000000000000        0.0000000000000000        0.0000000000000000     
 ONLY EQUAL zero C_tp  -3.3061318781398303E-003 -0.99999453097264601       -8.6699491629702678E-005  -3.3445180510764487E-004   8.7805708432855595E-005 -0.99999994021607219       0.99999447880175540       -3.3061026836849043E-003  -3.3474027323330700E-004
 FIRST_DIABAT           1
 C_tp  -3.3061318781398303E-003 -0.99999453097264601       -8.6699491629702678E-005  -3.3445180510764487E-004   8.7805708432855595E-005 -0.99999994021607219       0.99999447880175540       -3.3061026836849043E-003  -3.3474027323330700E-004
 ACTIVE_RANDOM_STATE           2
 ctin_ADIAB ( -3.3061318781398303E-003,  0.0000000000000000     ) ( -3.3445180510764487E-004,  0.0000000000000000     ) ( 0.99999447880175540     ,  0.0000000000000000     )
 ACTIVE STATE =            2
 K_tot =   2.0027535715306601E-002
   722.80557651970071     
   1862.6452181168991     

 ENERGY| Total FORCE_EVAL ( MIXED ) energy (a.u.):             0.034615297174927


 MD_ENERGIES| Initialization proceeding


 ******************************** GO CP2K GO! **********************************
 INITIAL POTENTIAL ENERGY[hartree]     =                      0.346152971749E-01
 INITIAL KINETIC ENERGY[hartree]       =                      0.200275357153E-01
 INITIAL TEMPERATURE[K]                =                                 263.508
 INITIAL VOLUME[bohr^3]                =                      0.862121845948E+07
 INITIAL CELL LNTHS[bohr]   =      0.2050483E+03   0.2050483E+03   0.2050483E+03
 INITIAL CELL ANGLS[deg]    =      0.9000000E+02   0.9000000E+02   0.9000000E+02
 ******************************** GO CP2K GO! **********************************
 LOOOK_At   6.0000000000000000        1.3485126548689701        6.0636455465548194        3.2189040321682265        1.0000000000000000        2.8872276085412709        5.8300351941184578        4.5714291660587438        1.0000000000000000        1.7040134180277926        7.2898502227330484        1.5118435582166840        6.0000000000000000      -0.92388667314457518        5.6006323017991573        3.9147884172520002        1.0000000000000000       -2.4317811239016880        6.0901647602930540        2.6369941001050283        1.0000000000000000       -1.2707440958009091        4.5446742748295135        5.5858829964313328     
 pcoeffsrun(:,orb*(k-1)+d,2)  0.56025764539433998        0.0000000000000000        0.0000000000000000       0.56025764539433998        0.0000000000000000        0.0000000000000000     
 pcoeffsrun(:,orb*(k-1)+d,2)  0.57074873130289350        0.0000000000000000        0.0000000000000000       0.57074873130289350        0.0000000000000000        0.0000000000000000     
 pcoeffsrun(:,orb*(k-1)+d,2)  0.56276398177826936        0.0000000000000000        0.0000000000000000       0.56276398177826936        0.0000000000000000        0.0000000000000000     
 LOOOK_At   6.0000000000000000       -1.8653839547971840      -0.96531097050839276        1.3550805819331138        1.0000000000000000      -0.94026976345774393       0.30659371543487668        2.7357558278431786        1.0000000000000000       -1.1241699602543882       -2.8704637655168272        1.3005614336559761        6.0000000000000000       -3.1332154237443106       -6.0611296696615136E-002 -0.82320268213900938        1.0000000000000000       -3.6109943467513470       -1.3537963067301932       -2.3163507721811691        1.0000000000000000       -3.5222302474335452        2.0050367301951018      -0.94008968444360741     
 LOOOK_At   6.0000000000000000        2.5475804238507171       -4.6175702680123143       -4.8004534866623629        1.0000000000000000        3.5521899513783657       -5.4149152667212661       -6.4889182343803062        1.0000000000000000        1.9630021094817822       -2.7149828223385901       -4.7743350798684894        6.0000000000000000        1.9649325287882418       -6.0467641324177066       -2.8426889044339481        1.0000000000000000        1.0410135417957269       -5.4030279554427612       -1.0916233516128007        1.0000000000000000        2.4850245895051595       -7.9996393963648336       -2.9983719608140844     
 Stt(j,i) = aom_env%Stt(j,i)   1.0000000000000000     
 Stt(j,i) = aom_env%Stt(j,i)  -1.9337013281449100E-002
 Stt(j,i) = aom_env%Stt(j,i)  -5.4855573046847829E-004
 Stt(j,i) = aom_env%Stt(j,i)  -1.9337013281449100E-002
 Stt(j,i) = aom_env%Stt(j,i)   1.0000000000000000     
 Stt(j,i) = aom_env%Stt(j,i)  -3.6351651520077167E-004
 Stt(j,i) = aom_env%Stt(j,i)  -5.4855573046847829E-004
 Stt(j,i) = aom_env%Stt(j,i)  -3.6351651520077167E-004
 Stt(j,i) = aom_env%Stt(j,i)   1.0000000000000000     
 aom_env%Stt(j,i)   = Stptp(j,i)   1.0000000000000000       -1.9418170386800829E-002  -5.6763370308178279E-004  -1.9418170386800829E-002   1.0000000000000000        6.0422228639494522E-005  -5.6763370308178279E-004   6.0422228639494522E-005   1.0000000000000000     
 PRINT INITIAL Stt   1.0000000000000000       -1.9337013281449100E-002  -5.4855573046847829E-004  -1.9337013281449100E-002   1.0000000000000000       -3.6351651520077167E-004  -5.4855573046847829E-004  -3.6351651520077167E-004   1.0000000000000000     
 PRINT INITIAL Sttp   1.0000000000000000       -1.9413843467459956E-002  -5.4928399102314464E-004  -1.9344236769373614E-002   1.0000000000000000       -3.3440637275556267E-004  -5.6682407512006973E-004   3.1715721997945686E-005   1.0000000000000000     
 PRINT INITIAL Stpt   1.0000000000000000       -1.9344236769373614E-002  -5.6682407512006973E-004  -1.9413843467459956E-002   1.0000000000000000        3.1715721997945686E-005  -5.4928399102314464E-004  -3.3440637275556267E-004   1.0000000000000000     
 PRINT INITIAL Stptp   1.0000000000000000       -1.9418170386800829E-002  -5.6763370308178279E-004  -1.9418170386800829E-002   1.0000000000000000        6.0422228639494522E-005  -5.6763370308178279E-004   6.0422228639494522E-005   1.0000000000000000     
 PRINT INITIAL Sttm   1.0000000000000000       -1.9267325979932685E-002  -5.4778640198232512E-004  -1.9323158066608302E-002   1.0000000000000000       -3.8876522598143556E-004  -5.3017099873476834E-004  -7.5735488289042506E-004   1.0000000000000000     
 PRINT INITIAL Stmtm   1.0000000000000000       -1.9250599294059700E-002  -5.2947992700042371E-004  -1.9250599294059700E-002   1.0000000000000000       -7.8277107708499250E-004  -5.2947992700042371E-004  -7.8277107708499250E-004   1.0000000000000000     
 aom_env%Stt(j,i)   = Stptp(j,i)   1.0000000000000000       -1.9418170386800829E-002  -5.6763370308178279E-004  -1.9418170386800829E-002   1.0000000000000000        6.0422228639494522E-005  -5.6763370308178279E-004   6.0422228639494522E-005   1.0000000000000000     
 aom_env%Sttm(j,i)  = Stpt(j,i)   1.0000000000000000       -1.9344236769373614E-002  -5.6682407512006973E-004  -1.9413843467459956E-002   1.0000000000000000        3.1715721997945686E-005  -5.4928399102314464E-004  -3.3440637275556267E-004   1.0000000000000000     
 aom_env%Stmt(j,i)  = Sttp(j,i)   1.0000000000000000       -1.9413843467459956E-002  -5.4928399102314464E-004  -1.9344236769373614E-002   1.0000000000000000       -3.3440637275556267E-004  -5.6682407512006973E-004   3.1715721997945686E-005   1.0000000000000000     
 aom_env%Stmtm(j,i) = Stt(j,i)   1.0000000000000000       -1.9337013281449100E-002  -5.4855573046847829E-004  -1.9337013281449100E-002   1.0000000000000000       -3.6351651520077167E-004  -5.4855573046847829E-004  -3.6351651520077167E-004   1.0000000000000000     
 DELTAMD_BEFORE   20.670686668282521     
 ONLY GRATER EQUAL C_t  -3.3061318781398303E-003 -0.99999453097264601       -8.6699491629702678E-005  -3.3445180510764487E-004   8.7805708432855595E-005 -0.99999994021607219       0.99999447880175540       -3.3061026836849043E-003  -3.3474027323330700E-004
 ONLY GRATER EQUAL C_tp   3.2378263250790944E-003  0.99999475813455330       -1.3568545991869351E-005  -3.3809812807292071E-004  -1.2473907582311663E-005 -0.99999994276702708      -0.99999470107113309        3.2378307272691001E-003   3.3805596746167878E-004
  OKKKKK_NACE_t   0.0000000000000000        0.0000000000000000        0.0000000000000000        0.0000000000000000        0.0000000000000000        0.0000000000000000        0.0000000000000000        0.0000000000000000        0.0000000000000000     
 C1  -3.3061318781398303E-003 -0.99999453097264601       -8.6699491629702678E-005  -3.3445180510764487E-004   8.7805708432855595E-005 -0.99999994021607219       0.99999447880175540       -3.3061026836849043E-003  -3.3474027323330700E-004
 C2   3.2378263250790944E-003  0.99999475813455330       -1.3568545991869351E-005  -3.3809812807292071E-004  -1.2473907582311663E-005 -0.99999994276702708      -0.99999470107113309        3.2378307272691001E-003   3.3805596746167878E-004
 DT   5.9056509846150309E-008   2.0239405758600545E-006   3.1421126157331280E-007   2.0239405758600545E-006   5.3150351814763148E-008  -1.0192778894250475E-005   3.1421126157350163E-007  -1.0192778894250665E-005  -5.2772641083850899E-009
 DS   0.0000000000000000       -3.5440885413857569E-006  -3.6224946583836912E-008  -5.0986943742066226E-007   0.0000000000000000        1.3148777807483798E-006  -8.8659551986588203E-007   1.9086705186701300E-005   0.0000000000000000     
 DC   3.1658155862137347E-004   9.6754854891977035E-002   3.5379059637165701E-006  -1.7640066940160324E-007  -4.8512958289401263E-006  -1.2340929610630948E-010  -9.6754849607473783E-002   3.1658035922895274E-004   3.2548325630968839E-005
 TERM1_TST   3.9308480087589478E-008   2.0232800448759026E-006   3.1424814390873102E-007   2.0261999226290233E-006   3.3221256912756119E-008  -1.0193356304458171E-005   4.1319131793088722E-007  -1.0195350927871162E-005  -5.6377016053082684E-009
 TERM2_TDT  -3.9232175338577349E-008  -3.5399712372809572E-006  -2.4971281885721196E-008  -5.1026219470805663E-007  -3.0973335724967757E-008   1.3145640356968953E-006  -7.0316887732933082E-007   1.9079873094352761E-005   7.8147301374037797E-009
 DIAB_NACE   7.6304749012128489E-011  -1.5166911924050546E-006   2.8927686202300981E-007   1.5159377279209666E-006   2.2479211877883618E-009  -8.8787922687612759E-006  -2.8997755939844360E-007   8.8845221664815996E-006   2.1770285320955113E-009
 i,j coefficients           1           1
 NACE_ADIABATIC   1.0250361053387960E-006
 i,j coefficients           1           1
 NACE_ADIABATIC   1.0299444226925651E-006
 i,j coefficients           1           1
 NACE_ADIABATIC   1.0299444354320319E-006
 i,j coefficients           1           1
 NACE_ADIABATIC   9.6755372749724886E-002
 i,j coefficients           1           1
 NACE_ADIABATIC   9.6755374997622504E-002
 i,j coefficients           1           1
 NACE_ADIABATIC   9.6755374877073086E-002
 i,j coefficients           1           1
 NACE_ADIABATIC   9.6755374829056134E-002
 i,j coefficients           1           1
 NACE_ADIABATIC   9.6755374949527809E-002
 i,j coefficients           1           1
 NACE_ADIABATIC   9.6755374949527809E-002
 i,j coefficients           1           2
 NACE_ADIABATIC  -5.7115481468112444E-010
 i,j coefficients           1           2
 NACE_ADIABATIC  -5.7121604089911964E-010
 i,j coefficients           1           2
 NACE_ADIABATIC   3.6768088086748262E-010
 i,j coefficients           1           2
 NACE_ADIABATIC  -4.8503899304542425E-006
 i,j coefficients           1           2
 NACE_ADIABATIC  -4.8503899584944567E-006
 i,j coefficients           1           2
 NACE_ADIABATIC  -1.3734865045021350E-005
 i,j coefficients           1           2
 NACE_ADIABATIC  -1.3734865042019807E-005
 i,j coefficients           1           2
 NACE_ADIABATIC  -1.3734865043522568E-005
 i,j coefficients           1           2
 NACE_ADIABATIC  -1.3734865013983457E-005
 i,j coefficients           1           3
 NACE_ADIABATIC  -3.1327539938520753E-004
 i,j coefficients           1           3
 NACE_ADIABATIC  -3.1327538349282350E-004
 i,j coefficients           1           3
 NACE_ADIABATIC  -3.1327538381022325E-004
 i,j coefficients           1           3
 NACE_ADIABATIC   4.8199911524006344E-006
 i,j coefficients           1           3
 NACE_ADIABATIC   4.8199984307507762E-006
 i,j coefficients           1           3
 NACE_ADIABATIC   4.8230018807434377E-006
 i,j coefficients           1           3
 NACE_ADIABATIC   4.8225641723357641E-006
 i,j coefficients           1           3
 NACE_ADIABATIC   4.8225645624046829E-006
 i,j coefficients           1           3
 NACE_ADIABATIC   4.8225645623946972E-006
 i,j coefficients           2           1
 NACE_ADIABATIC  -1.0703563243582502E-007
 i,j coefficients           2           1
 NACE_ADIABATIC  -1.0754816545726700E-007
 i,j coefficients           2           1
 NACE_ADIABATIC  -1.0754816678753906E-007
 i,j coefficients           2           1
 NACE_ADIABATIC  -1.3144592235933869E-006
 i,j coefficients           2           1
 NACE_ADIABATIC  -1.3144592516336011E-006
 i,j coefficients           2           1
 NACE_ADIABATIC  -1.3144592501298710E-006
 i,j coefficients           2           1
 NACE_ADIABATIC  -4.8533016395470532E-006
 i,j coefficients           2           1
 NACE_ADIABATIC   4.0254435796228066E-006
 i,j coefficients           2           1
 NACE_ADIABATIC   4.0254436091619168E-006
 i,j coefficients           2           2
 NACE_ADIABATIC   5.9640744837914318E-011
 i,j coefficients           2           2
 NACE_ADIABATIC   5.9647138160969604E-011
 i,j coefficients           2           2
 NACE_ADIABATIC  -3.8393726243627892E-011
 i,j coefficients           2           2
 NACE_ADIABATIC   2.2114493080305273E-011
 i,j coefficients           2           2
 NACE_ADIABATIC   2.2114493430078146E-011
 i,j coefficients           2           2
 NACE_ADIABATIC   1.3293919550494149E-010
 i,j coefficients           2           2
 NACE_ADIABATIC   3.5415244449534657E-010
 i,j coefficients           2           2
 NACE_ADIABATIC   2.4339921663101196E-010
 i,j coefficients           2           2
 NACE_ADIABATIC   2.4204274995309006E-009
 i,j coefficients           2           3
 NACE_ADIABATIC   3.2712633560062209E-005
 i,j coefficients           2           3
 NACE_ADIABATIC   3.2712631900558342E-005
 i,j coefficients           2           3
 NACE_ADIABATIC   3.2712631933701644E-005
 i,j coefficients           2           3
 NACE_ADIABATIC   3.2708664020592729E-005
 i,j coefficients           2           3
 NACE_ADIABATIC   3.2708664020501940E-005
 i,j coefficients           2           3
 NACE_ADIABATIC   3.2708663983036988E-005
 i,j coefficients           2           3
 NACE_ADIABATIC   4.4961552751499762E-007
 i,j coefficients           2           3
 NACE_ADIABATIC   4.7836355229849724E-007
 i,j coefficients           2           3
 NACE_ADIABATIC   4.7836281634105279E-007
 i,j coefficients           3           1
 NACE_ADIABATIC  -3.1657988132527398E-004
 i,j coefficients           3           1
 NACE_ADIABATIC  -3.1809580307404927E-004
 i,j coefficients           3           1
 NACE_ADIABATIC  -3.1809580700860226E-004
 i,j coefficients           3           1
 NACE_ADIABATIC  -4.8199807271790082E-006
 i,j coefficients           3           1
 NACE_ADIABATIC  -4.8199734488288665E-006
 i,j coefficients           3           1
 NACE_ADIABATIC  -4.8199738391495150E-006
 i,j coefficients           3           1
 NACE_ADIABATIC  -4.8187775122933971E-006
 i,j coefficients           3           1
 NACE_ADIABATIC  -4.8217790252700949E-006
 i,j coefficients           3           1
 NACE_ADIABATIC  -4.8217790252800805E-006
 i,j coefficients           3           2
 NACE_ADIABATIC   1.7639976046536011E-007
 i,j coefficients           3           2
 NACE_ADIABATIC   1.7641867003227776E-007
 i,j coefficients           3           2
 NACE_ADIABATIC  -1.1355733619951574E-007
 i,j coefficients           3           2
 NACE_ADIABATIC  -1.2926335057284508E-007
 i,j coefficients           3           2
 NACE_ADIABATIC  -1.2926335066363502E-007
 i,j coefficients           3           2
 NACE_ADIABATIC  -1.5802992788497575E-007
 i,j coefficients           3           2
 NACE_ADIABATIC  -1.5803000266743893E-007
 i,j coefficients           3           2
 NACE_ADIABATIC  -1.5802996522664720E-007
 i,j coefficients           3           2
 NACE_ADIABATIC  -1.5803070118409167E-007
 i,j coefficients           3           3
 NACE_ADIABATIC   9.6754336986712125E-002
 i,j coefficients           3           3
 NACE_ADIABATIC   9.6754332078388378E-002
 i,j coefficients           3           3
 NACE_ADIABATIC   9.6754332176416505E-002
 i,j coefficients           3           3
 NACE_ADIABATIC   9.6755362120794594E-002
 i,j coefficients           3           3
 NACE_ADIABATIC   9.6755362120818159E-002
 i,j coefficients           3           3
 NACE_ADIABATIC   9.6755362130542866E-002
 i,j coefficients           3           3
 NACE_ADIABATIC   9.6755373035907324E-002
 i,j coefficients           3           3
 NACE_ADIABATIC   9.6755373026188876E-002
 i,j coefficients           3           3
 NACE_ADIABATIC   9.6755373026189126E-002
 OKAYYYYYY_NACE_tp   9.6755374949527809E-002   4.0254436091619168E-006  -4.8217790252800805E-006  -1.3734865013983457E-005   2.4204274995309006E-009  -1.5803070118409167E-007   4.8225645623946972E-006   4.7836281634105279E-007   9.6755373026189126E-002
 ADIAB_HAMILTONIAN (  0.0000000000000000     , -1.7163712092486766E-002) (  0.0000000000000000     ,  0.0000000000000000     ) (  0.0000000000000000     ,  0.0000000000000000     ) (  0.0000000000000000     ,  0.0000000000000000     ) (  0.0000000000000000     , -2.5455188708777655E-002) (  0.0000000000000000     ,  0.0000000000000000     ) (  0.0000000000000000     ,  0.0000000000000000     ) (  0.0000000000000000     ,  0.0000000000000000     ) (  0.0000000000000000     , -2.8672723361939729E-002)
 MY_NACE_NON_SIMM_NEWWW   0.0000000000000000        0.0000000000000000        0.0000000000000000        0.0000000000000000        0.0000000000000000        0.0000000000000000        0.0000000000000000        0.0000000000000000        0.0000000000000000     
 MY_NACE_SIMM_NEWWW   0.0000000000000000        0.0000000000000000        0.0000000000000000        0.0000000000000000        0.0000000000000000        0.0000000000000000        0.0000000000000000        0.0000000000000000        0.0000000000000000     
 NEW_X_MATRIXX (  0.0000000000000000     , -1.7163712092486766E-002) (  0.0000000000000000     ,  0.0000000000000000     ) (  0.0000000000000000     ,  0.0000000000000000     ) (  0.0000000000000000     ,  0.0000000000000000     ) (  0.0000000000000000     , -2.5455188708777655E-002) (  0.0000000000000000     ,  0.0000000000000000     ) (  0.0000000000000000     ,  0.0000000000000000     ) (  0.0000000000000000     ,  0.0000000000000000     ) (  0.0000000000000000     , -2.8672723361939729E-002)
 ADIAB_HAMILTONIAN (  0.0000000000000000     , -1.7163712092486766E-002) (  0.0000000000000000     ,  0.0000000000000000     ) (  0.0000000000000000     ,  0.0000000000000000     ) (  0.0000000000000000     ,  0.0000000000000000     ) (  0.0000000000000000     , -2.5455188708777655E-002) (  0.0000000000000000     ,  0.0000000000000000     ) (  0.0000000000000000     ,  0.0000000000000000     ) (  0.0000000000000000     ,  0.0000000000000000     ) (  0.0000000000000000     , -2.8672723361939729E-002)
 MY_NACE_NON_SIMM_NEWWW   0.0000000000000000        0.0000000000000000        0.0000000000000000        0.0000000000000000        0.0000000000000000        0.0000000000000000        0.0000000000000000        0.0000000000000000        0.0000000000000000     
 MY_NACE_SIMM_NEWWW   0.0000000000000000        0.0000000000000000        0.0000000000000000        0.0000000000000000        0.0000000000000000        0.0000000000000000        0.0000000000000000        0.0000000000000000        0.0000000000000000     
 NEW_X_MATRIXX (  0.0000000000000000     , -1.7163712092486766E-002) (  0.0000000000000000     ,  0.0000000000000000     ) (  0.0000000000000000     ,  0.0000000000000000     ) (  0.0000000000000000     ,  0.0000000000000000     ) (  0.0000000000000000     , -2.5455188708777655E-002) (  0.0000000000000000     ,  0.0000000000000000     ) (  0.0000000000000000     ,  0.0000000000000000     ) (  0.0000000000000000     ,  0.0000000000000000     ) (  0.0000000000000000     , -2.8672723361939729E-002)
 ADIAB_HAMILTONIAN (  0.0000000000000000     , -1.7214998607531447E-002) (  0.0000000000000000     ,  0.0000000000000000     ) (  0.0000000000000000     ,  0.0000000000000000     ) (  0.0000000000000000     ,  0.0000000000000000     ) (  0.0000000000000000     , -2.5526920949115180E-002) (  0.0000000000000000     ,  0.0000000000000000     ) (  0.0000000000000000     ,  0.0000000000000000     ) (  0.0000000000000000     ,  0.0000000000000000     ) (  0.0000000000000000     , -2.8753218001799124E-002)
 MY_NACE_NON_SIMM_NEWWW   9.6755374949527816E-003   4.0254436091619170E-007  -4.8217790252800805E-007  -1.3734865013983457E-006   2.4204274995309009E-010  -1.5803070118409169E-008   4.8225645623946970E-007   4.7836281634105281E-008   9.6755373026189140E-003
 MY_NACE_SIMM_NEWWW   0.0000000000000000        8.8801543115726869E-007  -4.8221717938373893E-007  -8.8801543115726869E-007   0.0000000000000000       -3.1819675876257227E-008   4.8221717938373893E-007   3.1819675876257227E-008   0.0000000000000000     
 NEW_X_MATRIXX (  0.0000000000000000     , -1.7214998607531447E-002) ( -8.8801543115726869E-007,  0.0000000000000000     ) (  4.8221717938373893E-007,  0.0000000000000000     ) (  8.8801543115726869E-007,  0.0000000000000000     ) (  0.0000000000000000     , -2.5526920949115180E-002) (  3.1819675876257227E-008,  0.0000000000000000     ) ( -4.8221717938373893E-007,  0.0000000000000000     ) ( -3.1819675876257227E-008,  0.0000000000000000     ) (  0.0000000000000000     , -2.8753218001799124E-002)
 ADIAB_HAMILTONIAN (  0.0000000000000000     , -1.7266285122576129E-002) (  0.0000000000000000     ,  0.0000000000000000     ) (  0.0000000000000000     ,  0.0000000000000000     ) (  0.0000000000000000     ,  0.0000000000000000     ) (  0.0000000000000000     , -2.5598653189452706E-002) (  0.0000000000000000     ,  0.0000000000000000     ) (  0.0000000000000000     ,  0.0000000000000000     ) (  0.0000000000000000     ,  0.0000000000000000     ) (  0.0000000000000000     , -2.8833712641658519E-002)
 MY_NACE_NON_SIMM_NEWWW   1.9351074989905563E-002   8.0508872183238339E-007  -9.6435580505601611E-007  -2.7469730027966915E-006   4.8408549990618019E-010  -3.1606140236818339E-008   9.6451291247893940E-007   9.5672563268210563E-008   1.9351074605237828E-002
 MY_NACE_SIMM_NEWWW   0.0000000000000000        1.7760308623145374E-006  -9.6443435876747786E-007  -1.7760308623145374E-006   0.0000000000000000       -6.3639351752514454E-008   9.6443435876747786E-007   6.3639351752514454E-008   0.0000000000000000     
 NEW_X_MATRIXX (  0.0000000000000000     , -1.7266285122576129E-002) ( -1.7760308623145374E-006,  0.0000000000000000     ) (  9.6443435876747786E-007,  0.0000000000000000     ) (  1.7760308623145374E-006,  0.0000000000000000     ) (  0.0000000000000000     , -2.5598653189452706E-002) (  6.3639351752514454E-008,  0.0000000000000000     ) ( -9.6443435876747786E-007,  0.0000000000000000     ) ( -6.3639351752514454E-008,  0.0000000000000000     ) (  0.0000000000000000     , -2.8833712641658519E-002)
 ADIAB_HAMILTONIAN (  0.0000000000000000     , -1.7163712092486766E-002) (  0.0000000000000000     ,  0.0000000000000000     ) (  0.0000000000000000     ,  0.0000000000000000     ) (  0.0000000000000000     ,  0.0000000000000000     ) (  0.0000000000000000     , -2.5455188708777655E-002) (  0.0000000000000000     ,  0.0000000000000000     ) (  0.0000000000000000     ,  0.0000000000000000     ) (  0.0000000000000000     ,  0.0000000000000000     ) (  0.0000000000000000     , -2.8672723361939729E-002)
 MY_NACE_NON_SIMM_NEWWW   1.9351074989905563E-002   8.0508872183238339E-007  -9.6435580505601611E-007  -2.7469730027966915E-006   4.8408549990618019E-010  -3.1606140236818339E-008   9.6451291247893940E-007   9.5672563268210563E-008   1.9351074605237828E-002
 MY_NACE_SIMM_NEWWW   0.0000000000000000        1.7760308623145374E-006  -9.6443435876747786E-007  -1.7760308623145374E-006   0.0000000000000000       -6.3639351752514454E-008   9.6443435876747786E-007   6.3639351752514454E-008   0.0000000000000000     
 NEW_X_MATRIXX (  0.0000000000000000     , -1.7163712092486766E-002) ( -1.7760308623145374E-006,  0.0000000000000000     ) (  9.6443435876747786E-007,  0.0000000000000000     ) (  1.7760308623145374E-006,  0.0000000000000000     ) (  0.0000000000000000     , -2.5455188708777655E-002) (  6.3639351752514454E-008,  0.0000000000000000     ) ( -9.6443435876747786E-007,  0.0000000000000000     ) ( -6.3639351752514454E-008,  0.0000000000000000     ) (  0.0000000000000000     , -2.8672723361939729E-002)
 ADIAB_HAMILTONIAN (  0.0000000000000000     , -1.7317571637620811E-002) (  0.0000000000000000     ,  0.0000000000000000     ) (  0.0000000000000000     ,  0.0000000000000000     ) (  0.0000000000000000     ,  0.0000000000000000     ) (  0.0000000000000000     , -2.5670385429790232E-002) (  0.0000000000000000     ,  0.0000000000000000     ) (  0.0000000000000000     ,  0.0000000000000000     ) (  0.0000000000000000     ,  0.0000000000000000     ) (  0.0000000000000000     , -2.8914207281517914E-002)
 MY_NACE_NON_SIMM_NEWWW   2.9026612484858345E-002   1.2076330827485751E-006  -1.4465337075840242E-006  -4.1204595041950372E-006   7.2612824985927023E-010  -4.7409210355227505E-008   1.4467693687184090E-006   1.4350884490231586E-007   2.9026611907856742E-002
 MY_NACE_SIMM_NEWWW   0.0000000000000000        2.6640462934718062E-006  -1.4466515381512166E-006  -2.6640462934718062E-006   0.0000000000000000       -9.5459027628771681E-008   1.4466515381512166E-006   9.5459027628771681E-008   0.0000000000000000     
 NEW_X_MATRIXX (  0.0000000000000000     , -1.7317571637620811E-002) ( -2.6640462934718062E-006,  0.0000000000000000     ) (  1.4466515381512166E-006,  0.0000000000000000     ) (  2.6640462934718062E-006,  0.0000000000000000     ) (  0.0000000000000000     , -2.5670385429790232E-002) (  9.5459027628771681E-008,  0.0000000000000000     ) ( -1.4466515381512166E-006,  0.0000000000000000     ) ( -9.5459027628771681E-008,  0.0000000000000000     ) (  0.0000000000000000     , -2.8914207281517914E-002)
 ADIAB_HAMILTONIAN (  0.0000000000000000     , -1.7368858152665492E-002) (  0.0000000000000000     ,  0.0000000000000000     ) (  0.0000000000000000     ,  0.0000000000000000     ) (  0.0000000000000000     ,  0.0000000000000000     ) (  0.0000000000000000     , -2.5742117670127757E-002) (  0.0000000000000000     ,  0.0000000000000000     ) (  0.0000000000000000     ,  0.0000000000000000     ) (  0.0000000000000000     ,  0.0000000000000000     ) (  0.0000000000000000     , -2.8994701921377309E-002)
 MY_NACE_NON_SIMM_NEWWW   3.8702149979811126E-002   1.6101774436647668E-006  -1.9287116101120322E-006  -5.4939460055933829E-006   9.6817099981236037E-010  -6.3212280473636677E-008   1.9290258249578788E-006   1.9134512653642113E-007   3.8702149210475656E-002
 MY_NACE_SIMM_NEWWW   0.0000000000000000        3.5520617246290748E-006  -1.9288687175349557E-006  -3.5520617246290748E-006   0.0000000000000000       -1.2727870350502891E-007   1.9288687175349557E-006   1.2727870350502891E-007   0.0000000000000000     
 NEW_X_MATRIXX (  0.0000000000000000     , -1.7368858152665492E-002) ( -3.5520617246290748E-006,  0.0000000000000000     ) (  1.9288687175349557E-006,  0.0000000000000000     ) (  3.5520617246290748E-006,  0.0000000000000000     ) (  0.0000000000000000     , -2.5742117670127757E-002) (  1.2727870350502891E-007,  0.0000000000000000     ) ( -1.9288687175349557E-006,  0.0000000000000000     ) ( -1.2727870350502891E-007,  0.0000000000000000     ) (  0.0000000000000000     , -2.8994701921377309E-002)
 ADIAB_HAMILTONIAN (  0.0000000000000000     , -1.7163712092486766E-002) (  0.0000000000000000     ,  0.0000000000000000     ) (  0.0000000000000000     ,  0.0000000000000000     ) (  0.0000000000000000     ,  0.0000000000000000     ) (  0.0000000000000000     , -2.5455188708777655E-002) (  0.0000000000000000     ,  0.0000000000000000     ) (  0.0000000000000000     ,  0.0000000000000000     ) (  0.0000000000000000     ,  0.0000000000000000     ) (  0.0000000000000000     , -2.8672723361939729E-002)
 MY_NACE_NON_SIMM_NEWWW   3.8702149979811126E-002   1.6101774436647668E-006  -1.9287116101120322E-006  -5.4939460055933829E-006   9.6817099981236037E-010  -6.3212280473636677E-008   1.9290258249578788E-006   1.9134512653642113E-007   3.8702149210475656E-002
 MY_NACE_SIMM_NEWWW   0.0000000000000000        3.5520617246290748E-006  -1.9288687175349557E-006  -3.5520617246290748E-006   0.0000000000000000       -1.2727870350502891E-007   1.9288687175349557E-006   1.2727870350502891E-007   0.0000000000000000     
 NEW_X_MATRIXX (  0.0000000000000000     , -1.7163712092486766E-002) ( -3.5520617246290748E-006,  0.0000000000000000     ) (  1.9288687175349557E-006,  0.0000000000000000     ) (  3.5520617246290748E-006,  0.0000000000000000     ) (  0.0000000000000000     , -2.5455188708777655E-002) (  1.2727870350502891E-007,  0.0000000000000000     ) ( -1.9288687175349557E-006,  0.0000000000000000     ) ( -1.2727870350502891E-007,  0.0000000000000000     ) (  0.0000000000000000     , -2.8672723361939729E-002)
 ADIAB_HAMILTONIAN (  0.0000000000000000     , -1.7420144667710174E-002) (  0.0000000000000000     ,  0.0000000000000000     ) (  0.0000000000000000     ,  0.0000000000000000     ) (  0.0000000000000000     ,  0.0000000000000000     ) (  0.0000000000000000     , -2.5813849910465283E-002) (  0.0000000000000000     ,  0.0000000000000000     ) (  0.0000000000000000     ,  0.0000000000000000     ) (  0.0000000000000000     ,  0.0000000000000000     ) (  0.0000000000000000     , -2.9075196561236704E-002)
 MY_NACE_NON_SIMM_NEWWW   4.8377687474763911E-002   2.0127218045809584E-006  -2.4108895126400403E-006  -6.8674325069917287E-006   1.2102137497654505E-009  -7.9015350592045850E-008   2.4112822811973486E-006   2.3918140817052639E-007   4.8377686513094570E-002
 MY_NACE_SIMM_NEWWW   0.0000000000000000        4.4400771557863433E-006  -2.4110858969186946E-006  -4.4400771557863433E-006   0.0000000000000000       -1.5909837938128612E-007   2.4110858969186946E-006   1.5909837938128612E-007   0.0000000000000000     
 NEW_X_MATRIXX (  0.0000000000000000     , -1.7420144667710174E-002) ( -4.4400771557863433E-006,  0.0000000000000000     ) (  2.4110858969186946E-006,  0.0000000000000000     ) (  4.4400771557863433E-006,  0.0000000000000000     ) (  0.0000000000000000     , -2.5813849910465283E-002) (  1.5909837938128612E-007,  0.0000000000000000     ) ( -2.4110858969186946E-006,  0.0000000000000000     ) ( -1.5909837938128612E-007,  0.0000000000000000     ) (  0.0000000000000000     , -2.9075196561236704E-002)
 ADIAB_HAMILTONIAN (  0.0000000000000000     , -1.7471431182754855E-002) (  0.0000000000000000     ,  0.0000000000000000     ) (  0.0000000000000000     ,  0.0000000000000000     ) (  0.0000000000000000     ,  0.0000000000000000     ) (  0.0000000000000000     , -2.5885582150802808E-002) (  0.0000000000000000     ,  0.0000000000000000     ) (  0.0000000000000000     ,  0.0000000000000000     ) (  0.0000000000000000     ,  0.0000000000000000     ) (  0.0000000000000000     , -2.9155691201096099E-002)
 MY_NACE_NON_SIMM_NEWWW   5.8053224969716696E-002   2.4152661654971503E-006  -2.8930674151680483E-006  -8.2409190083900744E-006   1.4522564997185407E-009  -9.4818420710455023E-008   2.8935387374368184E-006   2.8701768980463166E-007   5.8053223815713484E-002
 MY_NACE_SIMM_NEWWW   0.0000000000000000        5.3280925869436123E-006  -2.8933030763024336E-006  -5.3280925869436123E-006   0.0000000000000000       -1.9091805525754334E-007   2.8933030763024336E-006   1.9091805525754334E-007   0.0000000000000000     
 NEW_X_MATRIXX (  0.0000000000000000     , -1.7471431182754855E-002) ( -5.3280925869436123E-006,  0.0000000000000000     ) (  2.8933030763024336E-006,  0.0000000000000000     ) (  5.3280925869436123E-006,  0.0000000000000000     ) (  0.0000000000000000     , -2.5885582150802808E-002) (  1.9091805525754334E-007,  0.0000000000000000     ) ( -2.8933030763024336E-006,  0.0000000000000000     ) ( -1.9091805525754334E-007,  0.0000000000000000     ) (  0.0000000000000000     , -2.9155691201096099E-002)
 ADIAB_HAMILTONIAN (  0.0000000000000000     , -1.7163712092486766E-002) (  0.0000000000000000     ,  0.0000000000000000     ) (  0.0000000000000000     ,  0.0000000000000000     ) (  0.0000000000000000     ,  0.0000000000000000     ) (  0.0000000000000000     , -2.5455188708777655E-002) (  0.0000000000000000     ,  0.0000000000000000     ) (  0.0000000000000000     ,  0.0000000000000000     ) (  0.0000000000000000     ,  0.0000000000000000     ) (  0.0000000000000000     , -2.8672723361939729E-002)
 MY_NACE_NON_SIMM_NEWWW   5.8053224969716696E-002   2.4152661654971503E-006  -2.8930674151680483E-006  -8.2409190083900744E-006   1.4522564997185407E-009  -9.4818420710455023E-008   2.8935387374368184E-006   2.8701768980463166E-007   5.8053223815713484E-002
 MY_NACE_SIMM_NEWWW   0.0000000000000000        5.3280925869436123E-006  -2.8933030763024336E-006  -5.3280925869436123E-006   0.0000000000000000       -1.9091805525754334E-007   2.8933030763024336E-006   1.9091805525754334E-007   0.0000000000000000     
 NEW_X_MATRIXX (  0.0000000000000000     , -1.7163712092486766E-002) ( -5.3280925869436123E-006,  0.0000000000000000     ) (  2.8933030763024336E-006,  0.0000000000000000     ) (  5.3280925869436123E-006,  0.0000000000000000     ) (  0.0000000000000000     , -2.5455188708777655E-002) (  1.9091805525754334E-007,  0.0000000000000000     ) ( -2.8933030763024336E-006,  0.0000000000000000     ) ( -1.9091805525754334E-007,  0.0000000000000000     ) (  0.0000000000000000     , -2.8672723361939729E-002)
 ADIAB_HAMILTONIAN (  0.0000000000000000     , -1.7522717697799537E-002) (  0.0000000000000000     ,  0.0000000000000000     ) (  0.0000000000000000     ,  0.0000000000000000     ) (  0.0000000000000000     ,  0.0000000000000000     ) (  0.0000000000000000     , -2.5957314391140334E-002) (  0.0000000000000000     ,  0.0000000000000000     ) (  0.0000000000000000     ,  0.0000000000000000     ) (  0.0000000000000000     ,  0.0000000000000000     ) (  0.0000000000000000     , -2.9236185840955494E-002)
 MY_NACE_NON_SIMM_NEWWW   6.7728762464669481E-002   2.8178105264133421E-006  -3.3752453176960564E-006  -9.6144055097884202E-006   1.6942992496716308E-009  -1.1062149082886420E-007   3.3757951936762882E-006   3.3485397143873693E-007   6.7728761118332398E-002
 MY_NACE_SIMM_NEWWW   0.0000000000000000        6.2161080181008814E-006  -3.3755202556861725E-006  -6.2161080181008814E-006   0.0000000000000000       -2.2273773113380058E-007   3.3755202556861725E-006   2.2273773113380058E-007   0.0000000000000000     
 NEW_X_MATRIXX (  0.0000000000000000     , -1.7522717697799537E-002) ( -6.2161080181008814E-006,  0.0000000000000000     ) (  3.3755202556861725E-006,  0.0000000000000000     ) (  6.2161080181008814E-006,  0.0000000000000000     ) (  0.0000000000000000     , -2.5957314391140334E-002) (  2.2273773113380058E-007,  0.0000000000000000     ) ( -3.3755202556861725E-006,  0.0000000000000000     ) ( -2.2273773113380058E-007,  0.0000000000000000     ) (  0.0000000000000000     , -2.9236185840955494E-002)
 ADIAB_HAMILTONIAN (  0.0000000000000000     , -1.7574004212844219E-002) (  0.0000000000000000     ,  0.0000000000000000     ) (  0.0000000000000000     ,  0.0000000000000000     ) (  0.0000000000000000     ,  0.0000000000000000     ) (  0.0000000000000000     , -2.6029046631477860E-002) (  0.0000000000000000     ,  0.0000000000000000     ) (  0.0000000000000000     ,  0.0000000000000000     ) (  0.0000000000000000     ,  0.0000000000000000     ) (  0.0000000000000000     , -2.9316680480814889E-002)
 MY_NACE_NON_SIMM_NEWWW   7.7404299959622266E-002   3.2203548873295340E-006  -3.8574232202240644E-006  -1.0987892011186766E-005   1.9363419996247207E-009  -1.2642456094727335E-007   3.8580516499157576E-006   3.8269025307284220E-007   7.7404298420951312E-002
 MY_NACE_SIMM_NEWWW   0.0000000000000000        7.1041234492581504E-006  -3.8577374350699114E-006  -7.1041234492581504E-006   0.0000000000000000       -2.5455740701005776E-007   3.8577374350699114E-006   2.5455740701005776E-007   0.0000000000000000     
 NEW_X_MATRIXX (  0.0000000000000000     , -1.7574004212844219E-002) ( -7.1041234492581504E-006,  0.0000000000000000     ) (  3.8577374350699114E-006,  0.0000000000000000     ) (  7.1041234492581504E-006,  0.0000000000000000     ) (  0.0000000000000000     , -2.6029046631477860E-002) (  2.5455740701005776E-007,  0.0000000000000000     ) ( -3.8577374350699114E-006,  0.0000000000000000     ) ( -2.5455740701005776E-007,  0.0000000000000000     ) (  0.0000000000000000     , -2.9316680480814889E-002)
 ADIAB_HAMILTONIAN (  0.0000000000000000     , -1.7163712092486766E-002) (  0.0000000000000000     ,  0.0000000000000000     ) (  0.0000000000000000     ,  0.0000000000000000     ) (  0.0000000000000000     ,  0.0000000000000000     ) (  0.0000000000000000     , -2.5455188708777655E-002) (  0.0000000000000000     ,  0.0000000000000000     ) (  0.0000000000000000     ,  0.0000000000000000     ) (  0.0000000000000000     ,  0.0000000000000000     ) (  0.0000000000000000     , -2.8672723361939729E-002)
 MY_NACE_NON_SIMM_NEWWW   7.7404299959622266E-002   3.2203548873295340E-006  -3.8574232202240644E-006  -1.0987892011186766E-005   1.9363419996247207E-009  -1.2642456094727335E-007   3.8580516499157576E-006   3.8269025307284220E-007   7.7404298420951312E-002
 MY_NACE_SIMM_NEWWW   0.0000000000000000        7.1041234492581504E-006  -3.8577374350699114E-006  -7.1041234492581504E-006   0.0000000000000000       -2.5455740701005776E-007   3.8577374350699114E-006   2.5455740701005776E-007   0.0000000000000000     
 NEW_X_MATRIXX (  0.0000000000000000     , -1.7163712092486766E-002) ( -7.1041234492581504E-006,  0.0000000000000000     ) (  3.8577374350699114E-006,  0.0000000000000000     ) (  7.1041234492581504E-006,  0.0000000000000000     ) (  0.0000000000000000     , -2.5455188708777655E-002) (  2.5455740701005776E-007,  0.0000000000000000     ) ( -3.8577374350699114E-006,  0.0000000000000000     ) ( -2.5455740701005776E-007,  0.0000000000000000     ) (  0.0000000000000000     , -2.8672723361939729E-002)
 ADIAB_HAMILTONIAN (  0.0000000000000000     , -1.7625290727888900E-002) (  0.0000000000000000     ,  0.0000000000000000     ) (  0.0000000000000000     ,  0.0000000000000000     ) (  0.0000000000000000     ,  0.0000000000000000     ) (  0.0000000000000000     , -2.6100778871815385E-002) (  0.0000000000000000     ,  0.0000000000000000     ) (  0.0000000000000000     ,  0.0000000000000000     ) (  0.0000000000000000     ,  0.0000000000000000     ) (  0.0000000000000000     , -2.9397175120674284E-002)
 MY_NACE_NON_SIMM_NEWWW   8.7079837454575051E-002   3.6228992482457258E-006  -4.3396011227520725E-006  -1.2361378512585112E-005   2.1783847495778107E-009  -1.4222763106568251E-007   4.3403081061552274E-006   4.3052653470694747E-007   8.7079835723570226E-002
 MY_NACE_SIMM_NEWWW   0.0000000000000000        7.9921388804154185E-006  -4.3399546144536495E-006  -7.9921388804154185E-006   0.0000000000000000       -2.8637708288631500E-007   4.3399546144536495E-006   2.8637708288631500E-007   0.0000000000000000     
 NEW_X_MATRIXX (  0.0000000000000000     , -1.7625290727888900E-002) ( -7.9921388804154185E-006,  0.0000000000000000     ) (  4.3399546144536495E-006,  0.0000000000000000     ) (  7.9921388804154185E-006,  0.0000000000000000     ) (  0.0000000000000000     , -2.6100778871815385E-002) (  2.8637708288631500E-007,  0.0000000000000000     ) ( -4.3399546144536495E-006,  0.0000000000000000     ) ( -2.8637708288631500E-007,  0.0000000000000000     ) (  0.0000000000000000     , -2.9397175120674284E-002)
 ADIAB_HAMILTONIAN (  0.0000000000000000     , -1.7676577242933582E-002) (  0.0000000000000000     ,  0.0000000000000000     ) (  0.0000000000000000     ,  0.0000000000000000     ) (  0.0000000000000000     ,  0.0000000000000000     ) (  0.0000000000000000     , -2.6172511112152911E-002) (  0.0000000000000000     ,  0.0000000000000000     ) (  0.0000000000000000     ,  0.0000000000000000     ) (  0.0000000000000000     ,  0.0000000000000000     ) (  0.0000000000000000     , -2.9477669760533679E-002)
 MY_NACE_NON_SIMM_NEWWW   9.6755374949527836E-002   4.0254436091619177E-006  -4.8217790252800805E-006  -1.3734865013983457E-005   2.4204274995309006E-009  -1.5803070118409167E-007   4.8225645623946972E-006   4.7836281634105279E-007   9.6755373026189140E-002
 MY_NACE_SIMM_NEWWW   0.0000000000000000        8.8801543115726884E-006  -4.8221717938373893E-006  -8.8801543115726884E-006   0.0000000000000000       -3.1819675876257224E-007   4.8221717938373893E-006   3.1819675876257224E-007   0.0000000000000000     
 NEW_X_MATRIXX (  0.0000000000000000     , -1.7676577242933582E-002) ( -8.8801543115726884E-006,  0.0000000000000000     ) (  4.8221717938373893E-006,  0.0000000000000000     ) (  8.8801543115726884E-006,  0.0000000000000000     ) (  0.0000000000000000     , -2.6172511112152911E-002) (  3.1819675876257224E-007,  0.0000000000000000     ) ( -4.8221717938373893E-006,  0.0000000000000000     ) ( -3.1819675876257224E-007,  0.0000000000000000     ) (  0.0000000000000000     , -2.9477669760533679E-002)
 SINGLE_CICLE ak(i) (  3.5353674798022702E-004,  2.4559241833164530E-005)
 SINGLE_CICLE akttm(i) ( -2.5138687859443590E-004, -0.0000000000000000     )
 SINGLE_CICLE b(i)   9.7115590219822135E-009
 SINGLE_CICLE ak(i) ( 0.99998659993571171     ,  0.0000000000000000     )
 SINGLE_CICLE akttm(i) ( 0.99998697984515150     ,  0.0000000000000000     )
 SINGLE_CICLE b(i)  -4.8407901312936035E-009
 SINGLE_CICLE ak(i) ( -3.5585034916084954E-003, -7.8188633343100012E-004)
 SINGLE_CICLE akttm(i) (  3.5995541338426622E-003,  0.0000000000000000     )
 SINGLE_CICLE b(i)  -1.1247056038898580E-009
 ACTIVE STATE =            2
 K_tot =   1.9696589025984694E-002
   715.28584036486814     
   1838.6473521644975     

 ENERGY| Total FORCE_EVAL ( MIXED ) energy (a.u.):             0.035309153949649

 MOMENTUM =   -1.2472090986648254E-006   1.0755121907513043E-006   1.3561639633508094E-007

 *******************************************************************************
 ENSEMBLE TYPE                =                                              NVE
 STEP NUMBER                  =                                                1
 TIME [fs]                    =                                         0.500000
 CONSERVED QUANTITY [hartree] =                               0.546513174142E-01

                                              INSTANTANEOUS             AVERAGES
 CPU TIME [s]                 =                        0.05                 0.05
 ENERGY DRIFT PER ATOM [K]    =          0.148844309806E+00   0.000000000000E+00
 POTENTIAL ENERGY[hartree]    =          0.353091539496E-01   0.353091539496E-01
 KINETIC ENERGY [hartree]     =          0.193421634646E-01   0.193421634646E-01
 TEMPERATURE [K]              =                     254.490              254.490
 *******************************************************************************

 LOOOK_At   6.0000000000000000        1.3445635027082288        6.0626363951388607        3.2141157648799332        1.0000000000000000        2.8723706367006985        5.8297235802662062        4.5684712201563933        1.0000000000000000        1.6905374943731077        7.2971529301697480        1.5225633586154617        6.0000000000000000      -0.92395162059344127        5.6010373817427190        3.9154392706596282        1.0000000000000000       -2.4390742496027649        6.0753488790441086        2.6332663086656325        1.0000000000000000       -1.2787917775826720        4.5182443946096944        5.5951738494288943     
 pcoeffsrun(:,orb*(k-1)+d,2)  0.56020271651242926        0.0000000000000000        0.0000000000000000       0.56020271651242926        0.0000000000000000        0.0000000000000000     
 pcoeffsrun(:,orb*(k-1)+d,2)  0.57088787433074850        0.0000000000000000        0.0000000000000000       0.57088787433074850        0.0000000000000000        0.0000000000000000     
 pcoeffsrun(:,orb*(k-1)+d,2)  0.56276408849674853        0.0000000000000000        0.0000000000000000       0.56276408849674853        0.0000000000000000        0.0000000000000000     
 LOOOK_At   6.0000000000000000       -1.8613164501866022      -0.96559991596333994        1.3539141654270339        1.0000000000000000      -0.93449082462066535       0.29833628241538224        2.7586755244517320        1.0000000000000000       -1.1391795006798446       -2.8666271313302989        1.2855055916920404        6.0000000000000000       -3.1348906957375351       -6.2664341510062394E-002 -0.82687911564391547        1.0000000000000000       -3.6240261626615125       -1.3312752305804811       -2.3152414393282452        1.0000000000000000       -3.5285512422960323        2.0112800103364199      -0.91815831608899745     
 LOOOK_At   6.0000000000000000        2.5498097678031764       -4.6178495996608504       -4.7984997272200065        1.0000000000000000        3.5850756084240016       -5.3924663379521469       -6.4948421391741071        1.0000000000000000        1.9526068617072498       -2.7219929884898009       -4.7734893693633262        6.0000000000000000        1.9694921053304748       -6.0455420562245239       -2.8394441354605808        1.0000000000000000        1.0272484526227457       -5.3817385656376651       -1.1134487436563305        1.0000000000000000        2.4869925825990427       -8.0025875499433923       -2.9706396687439049     
 Stt(j,i) = aom_env%Stt(j,i)   1.0000000000000000     
 Stt(j,i) = aom_env%Stt(j,i)  -1.9418170386800829E-002
 Stt(j,i) = aom_env%Stt(j,i)  -5.6763370308178279E-004
 Stt(j,i) = aom_env%Stt(j,i)  -1.9418170386800829E-002
 Stt(j,i) = aom_env%Stt(j,i)   1.0000000000000000     
 Stt(j,i) = aom_env%Stt(j,i)   6.0422228639494522E-005
 Stt(j,i) = aom_env%Stt(j,i)  -5.6763370308178279E-004
 Stt(j,i) = aom_env%Stt(j,i)   6.0422228639494522E-005
 Stt(j,i) = aom_env%Stt(j,i)   1.0000000000000000     
 aom_env%Stt(j,i)   = Stptp(j,i)   1.0000000000000000       -1.9490664920339740E-002  -5.8663813639642215E-004  -1.9490664920339740E-002   1.0000000000000000        4.9331075578768683E-004  -5.8663813639642215E-004   4.9331075578768683E-004   1.0000000000000000     
 PRINT INITIAL Stt   1.0000000000000000       -1.9418170386800829E-002  -5.6763370308178279E-004  -1.9418170386800829E-002   1.0000000000000000        6.0422228639494522E-005  -5.6763370308178279E-004   6.0422228639494522E-005   1.0000000000000000     
 PRINT INITIAL Sttp   1.0000000000000000       -1.9484467858702847E-002  -5.6838381366046192E-004  -1.9424146535792296E-002   1.0000000000000000        9.6714592048012825E-005  -5.8595274491628311E-004   4.5752311881885617E-004   1.0000000000000000     
 PRINT INITIAL Stpt   1.0000000000000000       -1.9424146535792296E-002  -5.8595274491628311E-004  -1.9484467858702847E-002   1.0000000000000000        4.5752311881885617E-004  -5.6838381366046192E-004   9.6714592048012825E-005   1.0000000000000000     
 PRINT INITIAL Stptp   1.0000000000000000       -1.9490664920339740E-002  -5.8663813639642215E-004  -1.9490664920339740E-002   1.0000000000000000        4.9331075578768683E-004  -5.8663813639642215E-004   4.9331075578768683E-004   1.0000000000000000     
 PRINT INITIAL Sttm   1.0000000000000000       -1.9344236769373614E-002  -5.6682407512006973E-004  -1.9413843467459956E-002   1.0000000000000000        3.1715721997945686E-005  -5.4928399102314464E-004  -3.3440637275556267E-004   1.0000000000000000     
 PRINT INITIAL Stmtm   1.0000000000000000       -1.9337013281449100E-002  -5.4855573046847829E-004  -1.9337013281449100E-002   1.0000000000000000       -3.6351651520077167E-004  -5.4855573046847829E-004  -3.6351651520077167E-004   1.0000000000000000     
 aom_env%Stt(j,i)   = Stptp(j,i)   1.0000000000000000       -1.9490664920339740E-002  -5.8663813639642215E-004  -1.9490664920339740E-002   1.0000000000000000        4.9331075578768683E-004  -5.8663813639642215E-004   4.9331075578768683E-004   1.0000000000000000     
 aom_env%Sttm(j,i)  = Stpt(j,i)   1.0000000000000000       -1.9424146535792296E-002  -5.8595274491628311E-004  -1.9484467858702847E-002   1.0000000000000000        4.5752311881885617E-004  -5.6838381366046192E-004   9.6714592048012825E-005   1.0000000000000000     
 aom_env%Stmt(j,i)  = Sttp(j,i)   1.0000000000000000       -1.9484467858702847E-002  -5.6838381366046192E-004  -1.9424146535792296E-002   1.0000000000000000        9.6714592048012825E-005  -5.8595274491628311E-004   4.5752311881885617E-004   1.0000000000000000     
 aom_env%Stmtm(j,i) = Stt(j,i)   1.0000000000000000       -1.9418170386800829E-002  -5.6763370308178279E-004  -1.9418170386800829E-002   1.0000000000000000        6.0422228639494522E-005  -5.6763370308178279E-004   6.0422228639494522E-005   1.0000000000000000     
 DELTAMD_BEFORE   20.670686668282521     
 ONLY GRATER EQUAL C_t   3.2378263250790944E-003  0.99999475813455330       -1.3568545991869351E-005  -3.3809812807292071E-004  -1.2473907582311663E-005 -0.99999994276702708      -0.99999470107113309        3.2378307272691001E-003   3.3805596746167878E-004
 ONLY GRATER EQUAL C_tp   3.2350468170921701E-003  0.99999476067338988       -1.1444588646134098E-004  -3.4018286892340455E-004  -1.1334596545328307E-004 -0.99999993571415180      -0.99999470935985779        3.2350855416546091E-003   3.3981440708947728E-004
  OKKKKK_NACE_t   9.6755374949527809E-002   4.0254436091619168E-006  -4.8217790252800805E-006  -1.3734865013983457E-005   2.4204274995309006E-009  -1.5803070118409167E-007   4.8225645623946972E-006   4.7836281634105279E-007   9.6755373026189126E-002
 C1   3.2378263250790944E-003  0.99999475813455330       -1.3568545991869351E-005  -3.3809812807292071E-004  -1.2473907582311663E-005 -0.99999994276702708      -0.99999470107113309        3.2378307272691001E-003   3.3805596746167878E-004
 C2   3.2350468170921701E-003  0.99999476067338988       -1.1444588646134098E-004  -3.4018286892340455E-004  -1.1334596545328307E-004 -0.99999993571415180      -0.99999470935985779        3.2350855416546091E-003   3.3981440708947728E-004
 DT   5.4394683946898065E-008   1.8552273651148110E-006   3.0970075039779626E-007   1.8552273651134684E-006   5.5011485337859666E-008  -1.0357778530761727E-005   3.0970075039796408E-007  -1.0357778530761727E-005   1.2577119859698226E-009
 DS   0.0000000000000000       -3.3920278406717311E-006  -3.7728271088001167E-008  -2.4921930504003779E-007   0.0000000000000000        1.5722474800462870E-006  -8.8697474064573948E-007   1.9155858348662647E-005   0.0000000000000000     
 DC  -1.3446616609932060E-007   1.2282304048002769E-010  -4.8802123552218357E-006  -1.0085493936119236E-007  -4.8799567953275273E-006   3.4120178961540442E-010  -4.0098932558993531E-010  -1.3280572912477224E-007   8.5069241095733960E-008
 TERM1_TST   3.6213704401224883E-008   1.8546834948826615E-006   3.1013153224288822E-007   1.8576080534203974E-006   3.4426784032379785E-008  -1.0358311401879688E-005   4.1067435665595003E-007  -1.0360306189631506E-005  -1.3278176557121579E-009
 TERM2_TDT  -3.5419513662022352E-008  -3.3877033539778046E-006  -2.3158618458397320E-008  -2.4930145145802249E-007  -3.1369135467256323E-008   1.5720289605746371E-006  -7.0190135508176605E-007   1.9149031428158879E-005   3.5945507622307207E-009
 DIAB_NACE   7.9419073920253100E-010  -1.5330198590951431E-006   2.8697291378449091E-007   1.6083066019623749E-006   3.0576485651234619E-009  -8.7862824413050515E-006  -2.9122699842581602E-007   8.7887252385273725E-006   2.2667331065185627E-009
 i,j coefficients           1           1
 NACE_ADIABATIC  -4.3499603102084814E-010
 i,j coefficients           1           1
 NACE_ADIABATIC   4.7679238626263841E-009
 i,j coefficients           1           1
 NACE_ADIABATIC   4.7680316858697933E-009
 i,j coefficients           1           1
 NACE_ADIABATIC  -6.8510948995714328E-011
 i,j coefficients           1           1
 NACE_ADIABATIC   2.9891055761726986E-009
 i,j coefficients           1           1
 NACE_ADIABATIC   1.9832773952742371E-009
 i,j coefficients           1           1
 NACE_ADIABATIC   2.5416913761667211E-009
 i,j coefficients           1           1
 NACE_ADIABATIC   3.5472399904363775E-009
 i,j coefficients           1           1
 NACE_ADIABATIC   3.5472400201257326E-009
 i,j coefficients           1           2
 NACE_ADIABATIC  -3.2627132458131991E-010
 i,j coefficients           1           2
 NACE_ADIABATIC  -3.2686105764964561E-010
 i,j coefficients           1           2
 NACE_ADIABATIC   6.1527185609327953E-010
 i,j coefficients           1           2
 NACE_ADIABATIC  -4.8787944514225018E-006
 i,j coefficients           1           2
 NACE_ADIABATIC  -4.8787947979928144E-006
 i,j coefficients           1           2
 NACE_ADIABATIC  -1.3667473424530479E-005
 i,j coefficients           1           2
 NACE_ADIABATIC  -1.3667473452407038E-005
 i,j coefficients           1           2
 NACE_ADIABATIC  -1.3667473566382514E-005
 i,j coefficients           1           2
 NACE_ADIABATIC  -1.3667473306964251E-005
 i,j coefficients           1           3
 NACE_ADIABATIC  -3.8664498715122603E-012
 i,j coefficients           1           3
 NACE_ADIABATIC   1.2965529239049092E-011
 i,j coefficients           1           3
 NACE_ADIABATIC   1.2645378880984922E-011
 i,j coefficients           1           3
 NACE_ADIABATIC   1.4002113285561897E-006
 i,j coefficients           1           3
 NACE_ADIABATIC   1.4002212202590280E-006
 i,j coefficients           1           3
 NACE_ADIABATIC   1.4032077400675959E-006
 i,j coefficients           1           3
 NACE_ADIABATIC   1.4032308469386369E-006
 i,j coefficients           1           3
 NACE_ADIABATIC   1.4032340999914640E-006
 i,j coefficients           1           3
 NACE_ADIABATIC   1.4032340999033099E-006
 i,j coefficients           2           1
 NACE_ADIABATIC   4.5742212143927170E-011
 i,j coefficients           2           1
 NACE_ADIABATIC  -5.0137327528833480E-010
 i,j coefficients           2           1
 NACE_ADIABATIC  -5.0138461349218578E-010
 i,j coefficients           2           1
 NACE_ADIABATIC  -5.0083640802555352E-010
 i,j coefficients           2           1
 NACE_ADIABATIC  -5.0118297833837971E-010
 i,j coefficients           2           1
 NACE_ADIABATIC  -5.0106897117481492E-010
 i,j coefficients           2           1
 NACE_ADIABATIC   4.8787826017704219E-006
 i,j coefficients           2           1
 NACE_ADIABATIC   1.3665018444041415E-005
 i,j coefficients           2           1
 NACE_ADIABATIC   1.3665018703459678E-005
 i,j coefficients           2           2
 NACE_ADIABATIC   3.4309214524220732E-011
 i,j coefficients           2           2
 NACE_ADIABATIC   3.4371228182267992E-011
 i,j coefficients           2           2
 NACE_ADIABATIC  -6.4699201281350923E-011
 i,j coefficients           2           2
 NACE_ADIABATIC   4.8836510233032126E-010
 i,j coefficients           2           2
 NACE_ADIABATIC   4.8836514161287378E-010
 i,j coefficients           2           2
 NACE_ADIABATIC   1.4845316248379828E-009
 i,j coefficients           2           2
 NACE_ADIABATIC   1.2409531199957470E-009
 i,j coefficients           2           2
 NACE_ADIABATIC   2.4506351796240884E-010
 i,j coefficients           2           2
 NACE_ADIABATIC   2.5117963330432603E-009
 i,j coefficients           2           3
 NACE_ADIABATIC   4.0657835394846939E-013
 i,j coefficients           2           3
 NACE_ADIABATIC  -1.3633963225343771E-012
 i,j coefficients           2           3
 NACE_ADIABATIC  -1.3297307611218784E-012
 i,j coefficients           2           3
 NACE_ADIABATIC  -1.6003743385376160E-010
 i,j coefficients           2           3
 NACE_ADIABATIC  -1.6003855504424408E-010
 i,j coefficients           2           3
 NACE_ADIABATIC  -1.6037706678886513E-010
 i,j coefficients           2           3
 NACE_ADIABATIC   2.0174176437209940E-007
 i,j coefficients           2           3
 NACE_ADIABATIC   2.3016613783557407E-007
 i,j coefficients           2           3
 NACE_ADIABATIC   2.3016536756705696E-007
 i,j coefficients           3           1
 NACE_ADIABATIC   1.3446288545659439E-007
 i,j coefficients           3           1
 NACE_ADIABATIC  -1.4738267811353155E-006
 i,j coefficients           3           1
 NACE_ADIABATIC  -1.4738601106909761E-006
 i,j coefficients           3           1
 NACE_ADIABATIC  -1.4738757574021039E-006
 i,j coefficients           3           1
 NACE_ADIABATIC  -1.4738658656992657E-006
 i,j coefficients           3           1
 NACE_ADIABATIC  -1.4738691196565197E-006
 i,j coefficients           3           1
 NACE_ADIABATIC  -1.4755271706507032E-006
 i,j coefficients           3           1
 NACE_ADIABATIC  -1.4785128603659305E-006
 i,j coefficients           3           1
 NACE_ADIABATIC  -1.4785128604540846E-006
 i,j coefficients           3           2
 NACE_ADIABATIC   1.0085467594265639E-007
 i,j coefficients           3           2
 NACE_ADIABATIC   1.0103697004274311E-007
 i,j coefficients           3           2
 NACE_ADIABATIC  -1.9018846888414896E-007
 i,j coefficients           3           2
 NACE_ADIABATIC  -2.0597385943655324E-007
 i,j coefficients           3           2
 NACE_ADIABATIC  -2.0597386055774373E-007
 i,j coefficients           3           2
 NACE_ADIABATIC  -2.3440613667868550E-007
 i,j coefficients           3           2
 NACE_ADIABATIC  -2.3440605390719497E-007
 i,j coefficients           3           2
 NACE_ADIABATIC  -2.3440571548953858E-007
 i,j coefficients           3           2
 NACE_ADIABATIC  -2.3440648575805568E-007
 i,j coefficients           3           3
 NACE_ADIABATIC   1.1951695397696630E-009
 i,j coefficients           3           3
 NACE_ADIABATIC  -4.0078123675358956E-009
 i,j coefficients           3           3
 NACE_ADIABATIC  -3.9088497613156857E-009
 i,j coefficients           3           3
 NACE_ADIABATIC   6.2093648710467844E-010
 i,j coefficients           3           3
 NACE_ADIABATIC   6.2096848777717510E-010
 i,j coefficients           3           3
 NACE_ADIABATIC   6.3063018545052766E-010
 i,j coefficients           3           3
 NACE_ADIABATIC   5.6202092455677158E-010
 i,j coefficients           3           3
 NACE_ADIABATIC   5.5236191232045324E-010
 i,j coefficients           3           3
 NACE_ADIABATIC   5.5236217406880950E-010
 OKAYYYYYY_NACE_tp   3.5472400201257326E-009   1.3665018703459678E-005  -1.4785128604540846E-006  -1.3667473306964251E-005   2.5117963330432603E-009  -2.3440648575805568E-007   1.4032340999033099E-006   2.3016536756705696E-007   5.5236217406880950E-010
 ADIAB_HAMILTONIAN (  0.0000000000000000     , -1.7676577242933568E-002) (  0.0000000000000000     ,  0.0000000000000000     ) (  0.0000000000000000     ,  0.0000000000000000     ) (  0.0000000000000000     ,  0.0000000000000000     ) (  0.0000000000000000     , -2.6172511112152901E-002) (  0.0000000000000000     ,  0.0000000000000000     ) (  0.0000000000000000     ,  0.0000000000000000     ) (  0.0000000000000000     ,  0.0000000000000000     ) (  0.0000000000000000     , -2.9477669760533672E-002)
 MY_NACE_NON_SIMM_NEWWW   9.6755374949527809E-002   4.0254436091619168E-006  -4.8217790252800805E-006  -1.3734865013983457E-005   2.4204274995309006E-009  -1.5803070118409167E-007   4.8225645623946972E-006   4.7836281634105279E-007   9.6755373026189126E-002
 MY_NACE_SIMM_NEWWW   0.0000000000000000        8.8801543115726867E-006  -4.8221717938373893E-006  -8.8801543115726867E-006   0.0000000000000000       -3.1819675876257224E-007   4.8221717938373893E-006   3.1819675876257224E-007   0.0000000000000000     
 NEW_X_MATRIXX (  0.0000000000000000     , -1.7676577242933568E-002) ( -8.8801543115726867E-006,  0.0000000000000000     ) (  4.8221717938373893E-006,  0.0000000000000000     ) (  8.8801543115726867E-006,  0.0000000000000000     ) (  0.0000000000000000     , -2.6172511112152901E-002) (  3.1819675876257224E-007,  0.0000000000000000     ) ( -4.8221717938373893E-006,  0.0000000000000000     ) ( -3.1819675876257224E-007,  0.0000000000000000     ) (  0.0000000000000000     , -2.9477669760533672E-002)
 ADIAB_HAMILTONIAN (  0.0000000000000000     , -1.7676577242933568E-002) (  0.0000000000000000     ,  0.0000000000000000     ) (  0.0000000000000000     ,  0.0000000000000000     ) (  0.0000000000000000     ,  0.0000000000000000     ) (  0.0000000000000000     , -2.6172511112152901E-002) (  0.0000000000000000     ,  0.0000000000000000     ) (  0.0000000000000000     ,  0.0000000000000000     ) (  0.0000000000000000     ,  0.0000000000000000     ) (  0.0000000000000000     , -2.9477669760533672E-002)
 MY_NACE_NON_SIMM_NEWWW   9.6755374949527809E-002   4.0254436091619168E-006  -4.8217790252800805E-006  -1.3734865013983457E-005   2.4204274995309006E-009  -1.5803070118409167E-007   4.8225645623946972E-006   4.7836281634105279E-007   9.6755373026189126E-002
 MY_NACE_SIMM_NEWWW   0.0000000000000000        8.8801543115726867E-006  -4.8221717938373893E-006  -8.8801543115726867E-006   0.0000000000000000       -3.1819675876257224E-007   4.8221717938373893E-006   3.1819675876257224E-007   0.0000000000000000     
 NEW_X_MATRIXX (  0.0000000000000000     , -1.7676577242933568E-002) ( -8.8801543115726867E-006,  0.0000000000000000     ) (  4.8221717938373893E-006,  0.0000000000000000     ) (  8.8801543115726867E-006,  0.0000000000000000     ) (  0.0000000000000000     , -2.6172511112152901E-002) (  3.1819675876257224E-007,  0.0000000000000000     ) ( -4.8221717938373893E-006,  0.0000000000000000     ) ( -3.1819675876257224E-007,  0.0000000000000000     ) (  0.0000000000000000     , -2.9477669760533672E-002)
 ADIAB_HAMILTONIAN (  0.0000000000000000     , -1.7687099762777454E-002) (  0.0000000000000000     ,  0.0000000000000000     ) (  0.0000000000000000     ,  0.0000000000000000     ) (  0.0000000000000000     ,  0.0000000000000000     ) (  0.0000000000000000     , -2.6178348306302678E-002) (  0.0000000000000000     ,  0.0000000000000000     ) (  0.0000000000000000     ,  0.0000000000000000     ) (  0.0000000000000000     ,  0.0000000000000000     ) (  0.0000000000000000     , -2.9493612112155326E-002)
 MY_NACE_NON_SIMM_NEWWW   8.7079837809299024E-002   4.9894011185916932E-006  -4.4874524087974806E-006  -1.3728125843281537E-005   2.4295643828821364E-009  -1.6566827964148807E-007   4.4806315161455587E-006   4.5354307146365323E-007   8.7079835778806430E-002
 MY_NACE_SIMM_NEWWW   0.0000000000000000        9.3587634809366149E-006  -4.4840419624715197E-006  -9.3587634809366149E-006   0.0000000000000000       -3.0960567555257064E-007   4.4840419624715197E-006   3.0960567555257064E-007   0.0000000000000000     
 NEW_X_MATRIXX (  0.0000000000000000     , -1.7687099762777454E-002) ( -9.3587634809366149E-006,  0.0000000000000000     ) (  4.4840419624715197E-006,  0.0000000000000000     ) (  9.3587634809366149E-006,  0.0000000000000000     ) (  0.0000000000000000     , -2.6178348306302678E-002) (  3.0960567555257064E-007,  0.0000000000000000     ) ( -4.4840419624715197E-006,  0.0000000000000000     ) ( -3.0960567555257064E-007,  0.0000000000000000     ) (  0.0000000000000000     , -2.9493612112155326E-002)
 ADIAB_HAMILTONIAN (  0.0000000000000000     , -1.7697622282621339E-002) (  0.0000000000000000     ,  0.0000000000000000     ) (  0.0000000000000000     ,  0.0000000000000000     ) (  0.0000000000000000     ,  0.0000000000000000     ) (  0.0000000000000000     , -2.6184185500452456E-002) (  0.0000000000000000     ,  0.0000000000000000     ) (  0.0000000000000000     ,  0.0000000000000000     ) (  0.0000000000000000     ,  0.0000000000000000     ) (  0.0000000000000000     , -2.9509554463776979E-002)
 MY_NACE_NON_SIMM_NEWWW   7.7404300669070239E-002   5.9533586280214696E-006  -4.1531257923148807E-006  -1.3721386672579616E-005   2.4387012662333722E-009  -1.7330585809888447E-007   4.1386984698964202E-006   4.2872332658625367E-007   7.7404298531423735E-002
 MY_NACE_SIMM_NEWWW   0.0000000000000000        9.8373726503005431E-006  -4.1459121311056500E-006  -9.8373726503005431E-006   0.0000000000000000       -3.0101459234256908E-007   4.1459121311056500E-006   3.0101459234256908E-007   0.0000000000000000     
 NEW_X_MATRIXX (  0.0000000000000000     , -1.7697622282621339E-002) ( -9.8373726503005431E-006,  0.0000000000000000     ) (  4.1459121311056500E-006,  0.0000000000000000     ) (  9.8373726503005431E-006,  0.0000000000000000     ) (  0.0000000000000000     , -2.6184185500452456E-002) (  3.0101459234256908E-007,  0.0000000000000000     ) ( -4.1459121311056500E-006,  0.0000000000000000     ) ( -3.0101459234256908E-007,  0.0000000000000000     ) (  0.0000000000000000     , -2.9509554463776979E-002)
 ADIAB_HAMILTONIAN (  0.0000000000000000     , -1.7676577242933568E-002) (  0.0000000000000000     ,  0.0000000000000000     ) (  0.0000000000000000     ,  0.0000000000000000     ) (  0.0000000000000000     ,  0.0000000000000000     ) (  0.0000000000000000     , -2.6172511112152901E-002) (  0.0000000000000000     ,  0.0000000000000000     ) (  0.0000000000000000     ,  0.0000000000000000     ) (  0.0000000000000000     ,  0.0000000000000000     ) (  0.0000000000000000     , -2.9477669760533672E-002)
 MY_NACE_NON_SIMM_NEWWW   7.7404300669070239E-002   5.9533586280214696E-006  -4.1531257923148807E-006  -1.3721386672579616E-005   2.4387012662333722E-009  -1.7330585809888447E-007   4.1386984698964202E-006   4.2872332658625367E-007   7.7404298531423735E-002
 MY_NACE_SIMM_NEWWW   0.0000000000000000        9.8373726503005431E-006  -4.1459121311056500E-006  -9.8373726503005431E-006   0.0000000000000000       -3.0101459234256908E-007   4.1459121311056500E-006   3.0101459234256908E-007   0.0000000000000000     
 NEW_X_MATRIXX (  0.0000000000000000     , -1.7676577242933568E-002) ( -9.8373726503005431E-006,  0.0000000000000000     ) (  4.1459121311056500E-006,  0.0000000000000000     ) (  9.8373726503005431E-006,  0.0000000000000000     ) (  0.0000000000000000     , -2.6172511112152901E-002) (  3.0101459234256908E-007,  0.0000000000000000     ) ( -4.1459121311056500E-006,  0.0000000000000000     ) ( -3.0101459234256908E-007,  0.0000000000000000     ) (  0.0000000000000000     , -2.9477669760533672E-002)
 ADIAB_HAMILTONIAN (  0.0000000000000000     , -1.7708144802465225E-002) (  0.0000000000000000     ,  0.0000000000000000     ) (  0.0000000000000000     ,  0.0000000000000000     ) (  0.0000000000000000     ,  0.0000000000000000     ) (  0.0000000000000000     , -2.6190022694602234E-002) (  0.0000000000000000     ,  0.0000000000000000     ) (  0.0000000000000000     ,  0.0000000000000000     ) (  0.0000000000000000     ,  0.0000000000000000     ) (  0.0000000000000000     , -2.9525496815398632E-002)
 MY_NACE_NON_SIMM_NEWWW   6.7728763528841454E-002   6.9173161374512460E-006  -3.8187991758322809E-006  -1.3714647501877695E-005   2.4478381495846080E-009  -1.8094343655628087E-007   3.7967654236472817E-006   4.0390358170885411E-007   6.7728761284041039E-002
 MY_NACE_SIMM_NEWWW   0.0000000000000000        1.0315981819664471E-005  -3.8077822997397813E-006  -1.0315981819664471E-005   0.0000000000000000       -2.9242350913256748E-007   3.8077822997397813E-006   2.9242350913256748E-007   0.0000000000000000     
 NEW_X_MATRIXX (  0.0000000000000000     , -1.7708144802465225E-002) ( -1.0315981819664471E-005,  0.0000000000000000     ) (  3.8077822997397813E-006,  0.0000000000000000     ) (  1.0315981819664471E-005,  0.0000000000000000     ) (  0.0000000000000000     , -2.6190022694602234E-002) (  2.9242350913256748E-007,  0.0000000000000000     ) ( -3.8077822997397813E-006,  0.0000000000000000     ) ( -2.9242350913256748E-007,  0.0000000000000000     ) (  0.0000000000000000     , -2.9525496815398632E-002)
 ADIAB_HAMILTONIAN (  0.0000000000000000     , -1.7718667322309110E-002) (  0.0000000000000000     ,  0.0000000000000000     ) (  0.0000000000000000     ,  0.0000000000000000     ) (  0.0000000000000000     ,  0.0000000000000000     ) (  0.0000000000000000     , -2.6195859888752011E-002) (  0.0000000000000000     ,  0.0000000000000000     ) (  0.0000000000000000     ,  0.0000000000000000     ) (  0.0000000000000000     ,  0.0000000000000000     ) (  0.0000000000000000     , -2.9541439167020286E-002)
 MY_NACE_NON_SIMM_NEWWW   5.8053226388612676E-002   7.8812736468810216E-006  -3.4844725593496814E-006  -1.3707908331175774E-005   2.4569750329358438E-009  -1.8858101501367727E-007   3.4548323773981431E-006   3.7908383683145455E-007   5.8053224036658344E-002
 MY_NACE_SIMM_NEWWW   0.0000000000000000        1.0794590989028398E-005  -3.4696524683739125E-006  -1.0794590989028398E-005   0.0000000000000000       -2.8383242592256592E-007   3.4696524683739125E-006   2.8383242592256592E-007   0.0000000000000000     
[...]
 MY_NACE_NON_SIMM_NEWWW   1.4042065220058573E-005  -8.0377646458373734E-004  -7.1443895753383794E-005   8.0376472880335989E-004   1.3983368357837423E-005   7.6275397784373523E-008   7.1371913122808518E-005   1.4545840048215309E-006   5.7694051280390451E-008
 MY_NACE_SIMM_NEWWW   0.0000000000000000       -8.0377059669354861E-004  -7.1407904438096156E-005   8.0377059669354861E-004   0.0000000000000000       -6.8915430351857871E-007   7.1407904438096156E-005   6.8915430351857871E-007   0.0000000000000000     
 NEW_X_MATRIXX (  0.0000000000000000     , -1.3710592022649555E-002) (  8.0377059669354861E-004,  0.0000000000000000     ) (  7.1407904438096156E-005,  0.0000000000000000     ) ( -8.0377059669354861E-004,  0.0000000000000000     ) (  0.0000000000000000     , -1.5493219180714612E-002) (  6.8915430351857871E-007,  0.0000000000000000     ) ( -7.1407904438096156E-005,  0.0000000000000000     ) ( -6.8915430351857871E-007,  0.0000000000000000     ) (  0.0000000000000000     , -1.9812355565450843E-002)
 ADIAB_HAMILTONIAN (  0.0000000000000000     , -1.4077626568297915E-002) (  0.0000000000000000     ,  0.0000000000000000     ) (  0.0000000000000000     ,  0.0000000000000000     ) (  0.0000000000000000     ,  0.0000000000000000     ) (  0.0000000000000000     , -1.5067063970074913E-002) (  0.0000000000000000     ,  0.0000000000000000     ) (  0.0000000000000000     ,  0.0000000000000000     ) (  0.0000000000000000     ,  0.0000000000000000     ) (  0.0000000000000000     , -1.9453485628845166E-002)
 MY_NACE_NON_SIMM_NEWWW   1.7515683088728123E-005  -9.7678847747882159E-004  -7.5437268570735831E-005   9.7677710299969565E-004   1.7450600061342680E-005   4.1776875018676508E-008   7.5357488418133483E-005   1.8410666238097078E-006   6.3984681124014882E-008
 MY_NACE_SIMM_NEWWW   0.0000000000000000       -9.7678279023925862E-004  -7.5397378494434657E-005   9.7678279023925862E-004   0.0000000000000000       -8.9964487439551566E-007   7.5397378494434657E-005   8.9964487439551566E-007   0.0000000000000000     
 NEW_X_MATRIXX (  0.0000000000000000     , -1.4077626568297915E-002) (  9.7678279023925862E-004,  0.0000000000000000     ) (  7.5397378494434657E-005,  0.0000000000000000     ) ( -9.7678279023925862E-004,  0.0000000000000000     ) (  0.0000000000000000     , -1.5067063970074913E-002) (  8.9964487439551566E-007,  0.0000000000000000     ) ( -7.5397378494434657E-005,  0.0000000000000000     ) ( -8.9964487439551566E-007,  0.0000000000000000     ) (  0.0000000000000000     , -1.9453485628845166E-002)
 ADIAB_HAMILTONIAN (  0.0000000000000000     , -1.4151033477427587E-002) (  0.0000000000000000     ,  0.0000000000000000     ) (  0.0000000000000000     ,  0.0000000000000000     ) (  0.0000000000000000     ,  0.0000000000000000     ) (  0.0000000000000000     , -1.4981832927946973E-002) (  0.0000000000000000     ,  0.0000000000000000     ) (  0.0000000000000000     ,  0.0000000000000000     ) (  0.0000000000000000     ,  0.0000000000000000     ) (  0.0000000000000000     , -1.9381711641524031E-002)
 MY_NACE_NON_SIMM_NEWWW   2.0989300957397673E-005  -1.1498004903739058E-003  -7.9430641388087867E-005   1.1497894771960314E-003   2.0917831764847939E-005   7.2783522529794927E-009   7.9343063713458448E-005   2.2275492427978847E-006   7.0275310967639320E-008
 MY_NACE_SIMM_NEWWW   0.0000000000000000       -1.1497949837849686E-003  -7.9386852550773158E-005   1.1497949837849686E-003   0.0000000000000000       -1.1101354452724525E-006   7.9386852550773158E-005   1.1101354452724525E-006   0.0000000000000000     
 NEW_X_MATRIXX (  0.0000000000000000     , -1.4151033477427587E-002) (  1.1497949837849686E-003,  0.0000000000000000     ) (  7.9386852550773158E-005,  0.0000000000000000     ) ( -1.1497949837849686E-003,  0.0000000000000000     ) (  0.0000000000000000     , -1.4981832927946973E-002) (  1.1101354452724525E-006,  0.0000000000000000     ) ( -7.9386852550773158E-005,  0.0000000000000000     ) ( -1.1101354452724525E-006,  0.0000000000000000     ) (  0.0000000000000000     , -1.9381711641524031E-002)
 ADIAB_HAMILTONIAN (  0.0000000000000000     , -1.3710592022649555E-002) (  0.0000000000000000     ,  0.0000000000000000     ) (  0.0000000000000000     ,  0.0000000000000000     ) (  0.0000000000000000     ,  0.0000000000000000     ) (  0.0000000000000000     , -1.5493219180714612E-002) (  0.0000000000000000     ,  0.0000000000000000     ) (  0.0000000000000000     ,  0.0000000000000000     ) (  0.0000000000000000     ,  0.0000000000000000     ) (  0.0000000000000000     , -1.9812355565450843E-002)
 MY_NACE_NON_SIMM_NEWWW   2.0989300957397673E-005  -1.1498004903739058E-003  -7.9430641388087867E-005   1.1497894771960314E-003   2.0917831764847939E-005   7.2783522529794927E-009   7.9343063713458448E-005   2.2275492427978847E-006   7.0275310967639320E-008
 MY_NACE_SIMM_NEWWW   0.0000000000000000       -1.1497949837849686E-003  -7.9386852550773158E-005   1.1497949837849686E-003   0.0000000000000000       -1.1101354452724525E-006   7.9386852550773158E-005   1.1101354452724525E-006   0.0000000000000000     
 NEW_X_MATRIXX (  0.0000000000000000     , -1.3710592022649555E-002) (  1.1497949837849686E-003,  0.0000000000000000     ) (  7.9386852550773158E-005,  0.0000000000000000     ) ( -1.1497949837849686E-003,  0.0000000000000000     ) (  0.0000000000000000     , -1.5493219180714612E-002) (  1.1101354452724525E-006,  0.0000000000000000     ) ( -7.9386852550773158E-005,  0.0000000000000000     ) ( -1.1101354452724525E-006,  0.0000000000000000     ) (  0.0000000000000000     , -1.9812355565450843E-002)
 ADIAB_HAMILTONIAN (  0.0000000000000000     , -1.4224440386557260E-002) (  0.0000000000000000     ,  0.0000000000000000     ) (  0.0000000000000000     ,  0.0000000000000000     ) (  0.0000000000000000     ,  0.0000000000000000     ) (  0.0000000000000000     , -1.4896601885819033E-002) (  0.0000000000000000     ,  0.0000000000000000     ) (  0.0000000000000000     ,  0.0000000000000000     ) (  0.0000000000000000     ,  0.0000000000000000     ) (  0.0000000000000000     , -1.9309937654202896E-002)
 MY_NACE_NON_SIMM_NEWWW   2.4462918826067223E-005  -1.3228125032689901E-003  -8.3424014205439904E-005   1.3228018513923672E-003   2.4385063468353197E-005  -2.7220170512717523E-008   8.3328639008783414E-005   2.6140318617860615E-006   7.6565940811263758E-008
 MY_NACE_SIMM_NEWWW   0.0000000000000000       -1.3228071773306786E-003  -8.3376326607111659E-005   1.3228071773306786E-003   0.0000000000000000       -1.3206260161493895E-006   8.3376326607111659E-005   1.3206260161493895E-006   0.0000000000000000     
 NEW_X_MATRIXX (  0.0000000000000000     , -1.4224440386557260E-002) (  1.3228071773306786E-003,  0.0000000000000000     ) (  8.3376326607111659E-005,  0.0000000000000000     ) ( -1.3228071773306786E-003,  0.0000000000000000     ) (  0.0000000000000000     , -1.4896601885819033E-002) (  1.3206260161493895E-006,  0.0000000000000000     ) ( -8.3376326607111659E-005,  0.0000000000000000     ) ( -1.3206260161493895E-006,  0.0000000000000000     ) (  0.0000000000000000     , -1.9309937654202896E-002)
 ADIAB_HAMILTONIAN (  0.0000000000000000     , -1.4297847295686932E-002) (  0.0000000000000000     ,  0.0000000000000000     ) (  0.0000000000000000     ,  0.0000000000000000     ) (  0.0000000000000000     ,  0.0000000000000000     ) (  0.0000000000000000     , -1.4811370843691093E-002) (  0.0000000000000000     ,  0.0000000000000000     ) (  0.0000000000000000     ,  0.0000000000000000     ) (  0.0000000000000000     ,  0.0000000000000000     ) (  0.0000000000000000     , -1.9238163666881761E-002)
 MY_NACE_NON_SIMM_NEWWW   2.7936536694736773E-005  -1.4958245161640744E-003  -8.7417387022791941E-005   1.4958142255887029E-003   2.7852295171858456E-005  -6.1718693278414538E-008   8.7314214304108379E-005   3.0005144807742384E-006   8.2856570654888196E-008
 MY_NACE_SIMM_NEWWW   0.0000000000000000       -1.4958193708763886E-003  -8.7365800663450160E-005   1.4958193708763886E-003   0.0000000000000000       -1.5311165870263264E-006   8.7365800663450160E-005   1.5311165870263264E-006   0.0000000000000000     
 NEW_X_MATRIXX (  0.0000000000000000     , -1.4297847295686932E-002) (  1.4958193708763886E-003,  0.0000000000000000     ) (  8.7365800663450160E-005,  0.0000000000000000     ) ( -1.4958193708763886E-003,  0.0000000000000000     ) (  0.0000000000000000     , -1.4811370843691093E-002) (  1.5311165870263264E-006,  0.0000000000000000     ) ( -8.7365800663450160E-005,  0.0000000000000000     ) ( -1.5311165870263264E-006,  0.0000000000000000     ) (  0.0000000000000000     , -1.9238163666881761E-002)
 ADIAB_HAMILTONIAN (  0.0000000000000000     , -1.3710592022649555E-002) (  0.0000000000000000     ,  0.0000000000000000     ) (  0.0000000000000000     ,  0.0000000000000000     ) (  0.0000000000000000     ,  0.0000000000000000     ) (  0.0000000000000000     , -1.5493219180714612E-002) (  0.0000000000000000     ,  0.0000000000000000     ) (  0.0000000000000000     ,  0.0000000000000000     ) (  0.0000000000000000     ,  0.0000000000000000     ) (  0.0000000000000000     , -1.9812355565450843E-002)
 MY_NACE_NON_SIMM_NEWWW   2.7936536694736773E-005  -1.4958245161640744E-003  -8.7417387022791941E-005   1.4958142255887029E-003   2.7852295171858456E-005  -6.1718693278414538E-008   8.7314214304108379E-005   3.0005144807742384E-006   8.2856570654888196E-008
 MY_NACE_SIMM_NEWWW   0.0000000000000000       -1.4958193708763886E-003  -8.7365800663450160E-005   1.4958193708763886E-003   0.0000000000000000       -1.5311165870263264E-006   8.7365800663450160E-005   1.5311165870263264E-006   0.0000000000000000     
 NEW_X_MATRIXX (  0.0000000000000000     , -1.3710592022649555E-002) (  1.4958193708763886E-003,  0.0000000000000000     ) (  8.7365800663450160E-005,  0.0000000000000000     ) ( -1.4958193708763886E-003,  0.0000000000000000     ) (  0.0000000000000000     , -1.5493219180714612E-002) (  1.5311165870263264E-006,  0.0000000000000000     ) ( -8.7365800663450160E-005,  0.0000000000000000     ) ( -1.5311165870263264E-006,  0.0000000000000000     ) (  0.0000000000000000     , -1.9812355565450843E-002)
 ADIAB_HAMILTONIAN (  0.0000000000000000     , -1.4371254204816605E-002) (  0.0000000000000000     ,  0.0000000000000000     ) (  0.0000000000000000     ,  0.0000000000000000     ) (  0.0000000000000000     ,  0.0000000000000000     ) (  0.0000000000000000     , -1.4726139801563154E-002) (  0.0000000000000000     ,  0.0000000000000000     ) (  0.0000000000000000     ,  0.0000000000000000     ) (  0.0000000000000000     ,  0.0000000000000000     ) (  0.0000000000000000     , -1.9166389679560625E-002)
 MY_NACE_NON_SIMM_NEWWW   3.1410154563406323E-005  -1.6688365290591586E-003  -9.1410759840143978E-005   1.6688265997850387E-003   3.1319526875363714E-005  -9.6217216044111553E-008   9.1299789599433344E-005   3.3869970997624153E-006   8.9147200498512633E-008
 MY_NACE_SIMM_NEWWW   0.0000000000000000       -1.6688315644220986E-003  -9.1355274719788661E-005   1.6688315644220986E-003   0.0000000000000000       -1.7416071579032634E-006   9.1355274719788661E-005   1.7416071579032634E-006   0.0000000000000000     
 NEW_X_MATRIXX (  0.0000000000000000     , -1.4371254204816605E-002) (  1.6688315644220986E-003,  0.0000000000000000     ) (  9.1355274719788661E-005,  0.0000000000000000     ) ( -1.6688315644220986E-003,  0.0000000000000000     ) (  0.0000000000000000     , -1.4726139801563154E-002) (  1.7416071579032634E-006,  0.0000000000000000     ) ( -9.1355274719788661E-005,  0.0000000000000000     ) ( -1.7416071579032634E-006,  0.0000000000000000     ) (  0.0000000000000000     , -1.9166389679560625E-002)
 ADIAB_HAMILTONIAN (  0.0000000000000000     , -1.4444661113946277E-002) (  0.0000000000000000     ,  0.0000000000000000     ) (  0.0000000000000000     ,  0.0000000000000000     ) (  0.0000000000000000     ,  0.0000000000000000     ) (  0.0000000000000000     , -1.4640908759435214E-002) (  0.0000000000000000     ,  0.0000000000000000     ) (  0.0000000000000000     ,  0.0000000000000000     ) (  0.0000000000000000     ,  0.0000000000000000     ) (  0.0000000000000000     , -1.9094615692239490E-002)
 MY_NACE_NON_SIMM_NEWWW   3.4883772432075873E-005  -1.8418485419542429E-003  -9.5404132657496014E-005   1.8418389739813744E-003   3.4786758578868973E-005  -1.3071573880980857E-007   9.5285364894758310E-005   3.7734797187505922E-006   9.5437830342137071E-008
 MY_NACE_SIMM_NEWWW   0.0000000000000000       -1.8418437579678087E-003  -9.5344748776127162E-005   1.8418437579678087E-003   0.0000000000000000       -1.9520977287802005E-006   9.5344748776127162E-005   1.9520977287802005E-006   0.0000000000000000     
 NEW_X_MATRIXX (  0.0000000000000000     , -1.4444661113946277E-002) (  1.8418437579678087E-003,  0.0000000000000000     ) (  9.5344748776127162E-005,  0.0000000000000000     ) ( -1.8418437579678087E-003,  0.0000000000000000     ) (  0.0000000000000000     , -1.4640908759435214E-002) (  1.9520977287802005E-006,  0.0000000000000000     ) ( -9.5344748776127162E-005,  0.0000000000000000     ) ( -1.9520977287802005E-006,  0.0000000000000000     ) (  0.0000000000000000     , -1.9094615692239490E-002)
 SINGLE_CICLE ak(i) ( -4.2096794177098093E-002, -2.6258675720503694E-004)
 SINGLE_CICLE akttm(i) ( -4.1817098252352356E-003, -1.8253870906607592E-004)
 SINGLE_CICLE b(i)   1.5507103239010292E-004
 SINGLE_CICLE ak(i) ( 0.99820895613938609     ,  0.0000000000000000     )
 SINGLE_CICLE akttm(i) ( 0.99997157429544448     ,  0.0000000000000000     )
 SINGLE_CICLE b(i)  -6.9448907936971269E-005
 SINGLE_CICLE ak(i) (  2.2309542342484334E-003,  3.2634083277618860E-003)
 SINGLE_CICLE akttm(i) (  1.0350198752202891E-003,  3.1358592044154559E-003)
 SINGLE_CICLE b(i)   5.8324166196130954E-010
 ACTIVE STATE =            2
 K_tot =   3.0834327783045012E-002
   21621.348034988376     
   952.72066801483470     

 ENERGY| Total FORCE_EVAL ( MIXED ) energy (a.u.):             0.023509911442902

 MOMENTUM =   -1.2554382533558339E-006   1.0773223300120094E-006   1.3211417559944039E-007

 *******************************************************************************
 ENSEMBLE TYPE                =                                              NVE
 STEP NUMBER                  =                                               10
 TIME [fs]                    =                                         5.000000
 CONSERVED QUANTITY [hartree] =                               0.545823468206E-01

                                              INSTANTANEOUS             AVERAGES
 CPU TIME [s]                 =                        0.02                 0.03
 ENERGY DRIFT PER ATOM [K]    =         -0.106110929744E+01  -0.461953839148E+00
 POTENTIAL ENERGY[hartree]    =          0.235099114429E-01   0.300979186158E-01
 KINETIC ENERGY [hartree]     =          0.310724353777E-01   0.245194301217E-01
 TEMPERATURE [K]              =                     408.829              322.609
 *******************************************************************************


 -------------------------------------------------------------------------------
 -                                                                             -
 -                                DBCSR STATISTICS                             -
 -                                                                             -
 -------------------------------------------------------------------------------
 COUNTER                                    TOTAL       BLAS       SMM       ACC
 flops total                                    0       0.0%      0.0%      0.0%
 flops max/rank                                 0       0.0%      0.0%      0.0%
 matmuls inhomo. stacks                         0       0.0%      0.0%      0.0%
 matmuls total                                  0       0.0%      0.0%      0.0%
 number of processed stacks                     0       0.0%      0.0%      0.0%
 average stack size                                     0.0       0.0       0.0
 marketing flops                     0.000000E+00
 -------------------------------------------------------------------------------

 MEMORY| Estimated peak process memory [MiB]                                  32

 -------------------------------------------------------------------------------
 -                                                                             -
 -                           R E F E R E N C E S                               -
 -                                                                             -
 -------------------------------------------------------------------------------
 
 CP2K version 4.0 (Development Version), the CP2K developers group (2015).
 CP2K is freely available from https://www.cp2k.org/ .

 Borstnik, U; VandeVondele, J; Weber, V; Hutter, J. 
 PARALLEL COMPUTING, 40 (5-6), 47-58 (2014). 
 Sparse matrix multiplication: The distributed block-compressed sparse
 row library.
 http://dx.doi.org/10.1016/j.parco.2014.03.012


 Hutter, J; Iannuzzi, M; Schiffmann, F; VandeVondele, J. 
 WILEY INTERDISCIPLINARY REVIEWS-COMPUTATIONAL MOLECULAR SCIENCE, 4 (1), 15-25 (2014). 
 CP2K: atomistic simulations of condensed matter systems.
 http://dx.doi.org/10.1002/wcms.1159


 Frigo, M; Johnson, SG. 
 PROCEEDINGS OF THE IEEE, 93 (2), 216-231 (2005). 
 The design and implementation of FFTW3.
 http://dx.doi.org/10.1109/JPROC.2004.840301


 -------------------------------------------------------------------------------
 -                                                                             -
 -                                T I M I N G                                  -
 -                                                                             -
 -------------------------------------------------------------------------------
 SUBROUTINE                       CALLS  ASD         SELF TIME        TOTAL TIME
                                MAXIMUM       AVERAGE  MAXIMUM  AVERAGE  MAXIMUM
 CP2K                                 1  1.0    0.007    0.007    0.316    0.316
 qs_mol_dyn_low                       1  2.0    0.023    0.023    0.262    0.262
 velocity_verlet                     10  3.0    0.156    0.156    0.161    0.161
 md_output                           10  3.0    0.000    0.000    0.072    0.072
 md_write_output                     11  3.9    0.062    0.062    0.069    0.069
 topology_control                     4  4.0    0.002    0.002    0.040    0.040
 connectivity_control                 4  5.0    0.001    0.001    0.035    0.035
 fist_create_force_env                3  2.0    0.000    0.000    0.034    0.034
 fist_init                            3  3.0    0.001    0.001    0.034    0.034
 read_topology_psf                   12  6.0    0.018    0.018    0.034    0.034
 parser_read_line                   240  7.0    0.001    0.001    0.016    0.016
 parser_read_line_low                12  8.0    0.016    0.016    0.016    0.016
 mixed_create_force_env               1  2.0    0.001    0.001    0.011    0.011
 mixed_init                           1  3.0    0.000    0.000    0.011    0.011
 write_trajectory                    44  4.9    0.004    0.004    0.007    0.007
 write_restart                       10  4.0    0.006    0.006    0.007    0.007
 -------------------------------------------------------------------------------

 The number of warnings for this run is : 1
 
 -------------------------------------------------------------------------------
  **** **** ******  **  PROGRAM ENDED AT                 2017-06-19 16:15:45.192
 ***** ** ***  *** **   PROGRAM RAN ON                     scutum.phys.ucl.ac.uk
 **    ****   ******    PROGRAM RAN BY                                    acarof
 ***** **    ** ** **   PROGRAM PROCESS ID                                 29959
  **** **  *******  **  PROGRAM STOPPED IN /scratch/grudorff/antoine/GIT/BLUMBER
                                           GER/flavoured-cptk/nonadiabatic/regte
                                           st-fobsh/new
