      18
 i =        0, time =        0.000, E =         0.0263238206
  C        -0.0002125033       -0.0000682612       -0.0002231501
  H        -0.0007116230        0.0000393599       -0.0001201412
  H        -0.0006219488        0.0004601963        0.0004334093
  C         0.0000107888        0.0000257899        0.0000360444
  H        -0.0003106997       -0.0007187991       -0.0001825826
  H        -0.0003630711       -0.0012590651        0.0003702242
  C         0.0001999953       -0.0000288360       -0.0000189267
  H         0.0003813527       -0.0003935477        0.0011420591
  H        -0.0006671619        0.0002123968       -0.0007532058
  C        -0.0001034348       -0.0000956497       -0.0002210878
  H        -0.0006057785        0.0010962685        0.0000905322
  H        -0.0003046288        0.0003944675        0.0010892976
  C         0.0001019752       -0.0000209860        0.0001152504
  H         0.0016524128        0.0010464885       -0.0003759398
  H        -0.0004986346       -0.0004524722        0.0000518807
  C         0.0002250499        0.0000753484        0.0001373478
  H        -0.0006781679        0.0010115489       -0.0009804300
  H         0.0000844244       -0.0000953128        0.0013142706
