       0       0.000         0.026323821         0.028672597         0.017163838         0.025455189         0.046351356
       1       0.500         0.026861030         0.029564605         0.017724510         0.026298823         0.046358274
       2       1.000         0.027092806         0.029991310         0.017980299         0.026741191         0.046361865
       3       1.500         0.026962740         0.029890288         0.017874763         0.026718654         0.046360905
       4       2.000         0.026487177         0.029276379         0.017424415         0.026243087         0.046355461
       5       2.500         0.025753807         0.028240483         0.016717283         0.025400789         0.046346924
       6       3.000         0.024899451         0.026927380         0.015890678         0.024330467         0.046337610
       7       3.500         0.024073396         0.025498896         0.015094479         0.023186641         0.046330048
       8       4.000         0.023397447         0.024093609         0.014451151         0.022099623         0.046326188
       9       4.500         0.022935138         0.022795514         0.014024906         0.021144498         0.046326786
      10       5.000         0.022679733         0.021621315         0.013809648         0.020328749         0.046331173
      11       5.500         0.022564617         0.020529970         0.013739305         0.019602154         0.046337482
      12       6.000         0.022492398         0.019450844         0.013716877         0.018885296         0.046343283
      13       6.500         0.022372893         0.018320702         0.013652367         0.018106905         0.046346393
      14       7.000         0.022157201         0.017116777         0.013496811         0.017237245         0.046345620
      15       7.500         0.021856309         0.015874466         0.013260877         0.016306076         0.046341170
      16       8.000         0.021537854         0.014683304         0.013011672         0.015398817         0.046334599
      17       8.500         0.021301814         0.013662264         0.012848751         0.014631948         0.046328428
      18       9.000         0.021228562         0.012922525         0.012867587         0.014115823         0.046381285
      19       9.500         0.020825596         0.012522655         0.013146736         0.013925522         0.046177847
      20      10.000         0.020668169         0.012439227         0.013777720         0.014100792         0.046180974
      21      10.500         0.020769405         0.012614043         0.014693617         0.014583585         0.046188003
      22      11.000         0.021017348         0.012933530         0.015771542         0.015258721         0.046195932
      23      11.500         0.021286642         0.013271445         0.016875655         0.015996520         0.046201756
      24      12.000         0.021485631         0.013535572         0.017903894         0.016699390         0.046203239
      25      12.500         0.021591209         0.013702521         0.018822823         0.017336653         0.046199678
      26      13.000         0.021659501         0.013828398         0.019678397         0.017955371         0.046192199
      27      13.500         0.021807898         0.014030809         0.020578101         0.018662654         0.046183443
      28      14.000         0.022173373         0.014447153         0.021649431         0.019584359         0.046176736
      29      14.500         0.022860139         0.015182241         0.022987723         0.020813192         0.046175005
      30      15.000         0.023893768         0.016262368         0.024610462         0.022363296         0.046179766
      31      15.500         0.025197493         0.017611566         0.026433754         0.024147008         0.046190549
      32      16.000         0.026599797         0.019059141         0.028280080         0.025982841         0.046204936
      33      16.500         0.027872622         0.020377805         0.029916606         0.027634017         0.046219231
      34      17.000         0.028789602         0.021341845         0.031113497         0.028866936         0.046229572
      35      17.500         0.029186959         0.021787956         0.031704846         0.029512226         0.046233114
      36      18.000         0.029008329         0.021660004         0.031633497         0.029509655         0.046228936
      37      18.500         0.028319364         0.021023605         0.030965632         0.028922767         0.046218351
      38      19.000         0.027287213         0.020045594         0.029870202         0.027918342         0.046204515
      39      19.500         0.026130853         0.018944387         0.028569214         0.026716687         0.046191479
      40      20.000         0.025057442         0.017926391         0.027274005         0.025527890         0.046182905
      41      20.500         0.024204534         0.017128291         0.026127369         0.024493916         0.046180937
      42      21.000         0.023606107         0.016583169         0.025169460         0.023654464         0.046185527
      43      21.500         0.023192877         0.016220902         0.024337948         0.022947070         0.046194477
      44      22.000         0.022826427         0.015902356         0.023501953         0.022240980         0.046204160
      45      22.500         0.022355814         0.015476057         0.022518435         0.021393497         0.046210715
      46      23.000         0.021678023         0.014838656         0.021292403         0.020310139         0.046211328
      47      23.500         0.020782214         0.013979197         0.019820928         0.018988622         0.046205183
      48      24.000         0.019762876         0.012992257         0.018206094         0.017531768         0.046193767
      49      24.500         0.018797026         0.012055127         0.016632034         0.016124492         0.046180429
      50      25.000         0.018092304         0.011375883         0.015312939         0.014981753         0.046169316
      51      25.500         0.017822469         0.011128858         0.014428542         0.014283946         0.046164037
      52      26.000         0.018071166         0.011398383         0.014067954         0.014120625         0.046166473
      53      26.500         0.018802416         0.012149251         0.014200293         0.014461007         0.046176142
      54      27.000         0.019867817         0.013233904         0.014682093         0.015161259         0.046190319
      55      27.500         0.021048572         0.014434549         0.015299645         0.016006732         0.046204934
      56      28.000         0.022117947         0.015527016         0.015833015         0.016775957         0.046217164
      57      28.500         0.022685957         0.016346350         0.016120242         0.017305620         0.046264988
      58      29.000         0.022541859         0.016871705         0.015995312         0.017501910         0.046255085
      59      29.500         0.022075780         0.017192305         0.015554314         0.017457137         0.046241672
      60      30.000         0.021496355         0.017498757         0.015002794         0.017368886         0.046225615
      61      30.500         0.021051109         0.018018746         0.014587819         0.017473979         0.046211937
      62      31.000         0.020949582         0.018938382         0.014518531         0.017969454         0.046205044
      63      31.500         0.021294896         0.020334534         0.014897580         0.018944430         0.046207259
      64      32.000         0.022047903         0.022140025         0.015685306         0.020344713         0.046218048
      65      32.500         0.023036046         0.024153653         0.016708640         0.021982133         0.046234135
      66      33.000         0.024004938         0.026092943         0.017712738         0.023586598         0.046250509
      67      33.500         0.024696929         0.027673840         0.018439590         0.024885096         0.046261997
      68      34.000         0.024931949         0.028692537         0.018708889         0.025682950         0.046264940
      69      34.500         0.024664522         0.029083319         0.018475069         0.025921201         0.046258403
      70      35.000         0.023998092         0.028933486         0.017841631         0.025691262         0.046244519
      71      35.500         0.023151303         0.028450009         0.017027418         0.025201495         0.046227858
      72      36.000         0.022386303         0.027887999         0.016294908         0.024705761         0.046213974
      73      36.500         0.021921769         0.027463675         0.015863213         0.024416642         0.046207605
      74      37.000         0.021858861         0.027280098         0.015834007         0.024431532         0.046211093
      75      37.500         0.022144775         0.027290355         0.016155041         0.024696267         0.046223545
      76      38.000         0.022586882         0.027311241         0.016634238         0.025019262         0.046241033
      77      38.500         0.022914258         0.027084249         0.017001178         0.025132972         0.046257787
      78      39.000         0.022867881         0.026365209         0.016997240         0.024783944         0.046268025
      79      39.500         0.022290926         0.025014011         0.016465858         0.023822920         0.046267819
      80      40.000         0.021189866         0.023055166         0.015413584         0.022265682         0.046256425
      81      40.500         0.019745689         0.020688510         0.014021290         0.020303980         0.046236631
      82      41.000         0.018269928         0.018244798         0.012600200         0.018261263         0.046213982
      83      41.500         0.017117617         0.016098286         0.011504877         0.016505328         0.046195128
      84      42.000         0.016583122         0.014562256         0.011029090         0.015343843         0.046185793
      85      42.500         0.016810720         0.013799387         0.011316469         0.014934658         0.046188981
      86      43.000         0.017747732         0.013774759         0.012313737         0.015238726         0.046204050
      87      43.500         0.019154865         0.014266451         0.013781488         0.016030588         0.046227182
      88      44.000         0.020249788         0.014931258         0.015360274         0.016964090         0.046282660
      89      44.500         0.020608465         0.015345766         0.016767329         0.017691428         0.046296053
      90      45.000         0.020497250         0.015289170         0.017763644         0.017987568         0.046299150
      91      45.500         0.019866612         0.014711202         0.018277603         0.017796124         0.046290043
      92      46.000         0.018858027         0.013753225         0.018426802         0.017250744         0.046271277
      93      46.500         0.017764176         0.012707963         0.018478369         0.016635080         0.046248569
      94      47.000         0.016939245         0.011929747         0.018759955         0.016293332         0.046229032
      95      47.500         0.016687468         0.011723041         0.019549138         0.016519119         0.046218944
      96      48.000         0.017164746         0.012244023         0.020976001         0.017457454         0.046221776
      97      48.500         0.018324350         0.013446276         0.022969852         0.019050829         0.046237069
      98      49.000         0.019924244         0.015088076         0.025267554         0.021046914         0.046260533
      99      49.500         0.021594474         0.016799757         0.027481872         0.023066345         0.046285337
     100      50.000         0.022944465         0.018190978         0.029209592         0.024710387         0.046304191
     101      50.500         0.023677537         0.018965212         0.030146693         0.025675817         0.046311584
     102      51.000         0.023677566         0.019006391         0.030175438         0.025841904         0.046305483
     103      51.500         0.023041110         0.018411012         0.029396660         0.025302805         0.046287970
     104      52.000         0.022044991         0.017455727         0.028097238         0.024335328         0.046264602
     105      52.500         0.021059223         0.016510282         0.026662594         0.023311923         0.046242707
     106      53.000         0.020432018         0.015922552         0.025461015         0.022585611         0.046229118
     107      53.500         0.020382310         0.015911091         0.024735213         0.022382260         0.046228065
     108      54.000         0.020932829         0.016498253         0.024534251         0.022733268         0.046239880
     109      54.500         0.021904140         0.017504255         0.024706292         0.023469049         0.046260918
     110      55.000         0.022970952         0.018603519         0.024953582         0.024274716         0.046284723
     111      55.500         0.023762696         0.019425269         0.024931751         0.024789972         0.046304053
     112      56.000         0.023976816         0.019666830         0.024361948         0.024721755         0.046313121
     113      56.500         0.023469723         0.019184579         0.023120861         0.023934624         0.046309348
     114      57.000         0.022297929         0.018035083         0.021281170         0.022491483         0.046294083
     115      57.500         0.020697906         0.016454944         0.019091024         0.020633212         0.046272089
     116      58.000         0.019012489         0.014787198         0.016900345         0.018705034         0.046249981
     117      58.500         0.017588014         0.013378447         0.015058156         0.017053828         0.046234135
     118      59.000         0.016674797         0.012479318         0.013813467         0.015928939         0.046228731
     119      59.500         0.016361511         0.012178843         0.013250254         0.015417018         0.046234538
     120      60.000         0.016562525         0.012391773         0.013275520         0.015429905         0.046248808
     121      60.500         0.017060039         0.012900703         0.013662216         0.015747322         0.046266272
     122      61.000         0.017585561         0.013437518         0.014131511         0.016098866         0.046280911
     123      61.500         0.017913256         0.013776737         0.014446913         0.016257795         0.046287913
     124      62.000         0.017934758         0.013810298         0.014489759         0.016116133         0.046285189
     125      62.500         0.017691697         0.013580077         0.014292321         0.015717339         0.046273993
     126      63.000         0.017356378         0.013258552         0.014018926         0.015236937         0.046258445
     127      63.500         0.017167918         0.013084944         0.013902399         0.014918449         0.046244138
     128      64.000         0.017345405         0.013278377         0.014157377         0.014986213         0.046236302
     129      64.500         0.018006697         0.013956684         0.014899123         0.015563729         0.046238106
     130      65.000         0.019119313         0.015087316         0.016094315         0.016624065         0.046249629
     131      65.500         0.020499412         0.016486337         0.017559808         0.017988355         0.046267833
     132      66.000         0.021859484         0.017866125         0.019010012         0.019373055         0.046287495
     133      66.500         0.022890098         0.018917139         0.020138283         0.020471361         0.046302829
     134      67.000         0.023350491         0.019398522         0.020707109         0.021043574         0.046309267
     135      67.500         0.023140098         0.019209641         0.020619234         0.020988538         0.046304863
     136      68.000         0.022329121         0.018420666         0.019947854         0.020374235         0.046290875
     137      68.500         0.021138937         0.017252986         0.018916690         0.019418316         0.046271368
     138      69.000         0.019878512         0.016015623         0.017836145         0.018424714         0.046251961
     139      69.500         0.018856371         0.015017207         0.017015107         0.017695860         0.046238118
     140      70.000         0.018294815         0.014480185         0.016675102         0.017447174         0.046233513
     141      70.500         0.018271953         0.014482849         0.016892381         0.017749384         0.046238972
     142      71.000         0.018708155         0.014945771         0.017584538         0.018515260         0.046252310
     143      71.500         0.019399609         0.015665347         0.018544348         0.019533460         0.046269083
     144      72.000         0.020087267         0.016382722         0.019509093         0.020537763         0.046284016
     145      72.500         0.020538969         0.016865885         0.020243107         0.021289473         0.046292644
     146      73.000         0.020619114         0.016979334         0.020607908         0.021647372         0.046292656
     147      73.500         0.020324888         0.016720273         0.020598824         0.021604186         0.046284537
     148      74.000         0.019778978         0.016211319         0.020338020         0.021279510         0.046271319
     149      74.500         0.019182593         0.015653525         0.020027667         0.020872959         0.046257551
     150      75.000         0.018744934         0.015255851         0.019879372         0.020593678         0.046247801
     151      75.500         0.018612312         0.015164298         0.020043036         0.020589392         0.046245200
     152      76.000         0.018819703         0.015413489         0.020557953         0.020897786         0.046250457
     153      76.500         0.019280034         0.015915973         0.021341459         0.021435496         0.046261664
     154      77.000         0.019814120         0.016492202         0.022218138         0.022027675         0.046274944
     155      77.500         0.020211160         0.016931039         0.022979536         0.022468054         0.046285727
     156      78.000         0.020299905         0.017060955         0.023454606         0.022589657         0.046290234
     157      78.500         0.020007330         0.016808705         0.023567783         0.022323036         0.046286710
     158      79.000         0.019385723         0.016226431         0.023365674         0.021723002         0.046275993
     159      79.500         0.018599357         0.015478330         0.023003576         0.020955025         0.046261258
     160      80.000         0.017874846         0.014791002         0.022695956         0.020245446         0.046247008
     161      80.500         0.017430893         0.014383196         0.022646594         0.019811240         0.046237652
     162      81.000         0.017409621         0.014397132         0.022980570         0.019791503         0.046236120
     163      81.500         0.017831010         0.014852923         0.023699562         0.020202182         0.046242963
     164      82.000         0.018584493         0.015640161         0.024674451         0.020928097         0.046256206
     165      82.500         0.019459990         0.016548939         0.025677451         0.021754467         0.046271994
     166      83.000         0.020208387         0.017330309         0.026443679         0.022427930         0.046285791
     167      83.500         0.020612675         0.017767402         0.026743319         0.022728201         0.046293764
     168      84.000         0.020548223         0.017735696         0.026442789         0.022528807         0.046293894
     169      84.500         0.020014767         0.017234979         0.025537424         0.021829422         0.046286491
     170      85.000         0.019131921         0.016384859         0.024147445         0.020751564         0.046273983
     171      85.500         0.018101427         0.015387015         0.022480419         0.019500880         0.046260070
     172      86.000         0.017149170         0.014467224         0.020773211         0.018309001         0.046248550
     173      86.500         0.016465227         0.013815422         0.019231710         0.017373273         0.046242200
     174      87.000         0.016159498         0.013541370         0.017985936         0.016811947         0.046242048
     175      87.500         0.016244411         0.013657392         0.017072015         0.016646362         0.046247250
     176      88.000         0.016646898         0.014090441         0.016443355         0.016812409         0.046255565
     177      88.500         0.017242397         0.014716544         0.016004072         0.017194386         0.046264382
     178      89.000         0.017888336         0.015404467         0.015651450         0.017668071         0.046290629
     179      89.500         0.017770982         0.016058658         0.015308836         0.018138734         0.046074505
     180      90.000         0.017356264         0.016736298         0.014915108         0.018594450         0.046066588
     181      90.500         0.016987413         0.017508293         0.014569247         0.019109748         0.046059084
     182      91.000         0.016777489         0.018455718         0.014382135         0.019769781         0.046053295
     183      91.500         0.016812360         0.019634348         0.014439274         0.020634479         0.046051082
     184      92.000         0.017122662         0.021046182         0.014771226         0.021710065         0.046053279
     185      92.500         0.017671100         0.022627495         0.015340734         0.022937158         0.046059403
     186      93.000         0.018360059         0.024257194         0.016050272         0.024199204         0.046067835
     187      93.500         0.019056812         0.025782612         0.016767237         0.025348364         0.046076339
     188      94.000         0.019628126         0.027054507         0.017358544         0.026240606         0.046082768
     189      94.500         0.019973494         0.027960444         0.017723836         0.026769182         0.046085686
     190      95.000         0.020047177         0.028446789         0.017817519         0.026886689         0.046084752
     191      95.500         0.019863282         0.028523552         0.017653822         0.026609940         0.046080724
     192      96.000         0.019483759         0.028252028         0.017294789         0.026007577         0.046075127
     193      96.500         0.018994599         0.027720573         0.016826470         0.025175756         0.046069697
     194      97.000         0.018478905         0.027017246         0.016331990         0.024210614         0.046065798
     195      97.500         0.017995799         0.026208345         0.015870469         0.023186570         0.046064023
     196      98.000         0.017571473         0.025329151         0.015468075         0.022146767         0.046064080
     197      98.500         0.017203900         0.024388446         0.015122749         0.021107250         0.046065019
     198      99.000         0.016877784         0.023383345         0.014819168         0.020071446         0.046065680
     199      99.500         0.016582772         0.022317482         0.014546961         0.019047969         0.046065187
     200     100.000         0.016327144         0.021214699         0.014314421         0.018063980         0.046063320
     201     100.500         0.016141325         0.020122579         0.014152026         0.017168385         0.046060614
     202     101.000         0.016069694         0.019104250         0.014104292         0.016423382         0.046058147
     203     101.500         0.016153876         0.018221652         0.014213159         0.015887505         0.046057128
     204     102.000         0.016413972         0.017516826         0.014499539         0.015596758         0.046058461
     205     102.500         0.016834490         0.016998723         0.014950613         0.015551262         0.046062725
     206     103.000         0.017353680         0.016641127         0.015518995         0.015712579         0.046074529
     207     103.500         0.017813593         0.016395327         0.016143078         0.016009891         0.046083448
     208     104.000         0.018045643         0.016225021         0.016813573         0.016344301         0.046210076
     209     104.500         0.017841661         0.016034934         0.017504737         0.016738593         0.046200875
     210     105.000         0.017639239         0.015853125         0.018225901         0.017207262         0.046197478
     211     105.500         0.017491748         0.015727091         0.019001191         0.017778304         0.046194157
     212     106.000         0.017446777         0.015703666         0.019854378         0.018477584         0.046192186
     213     106.500         0.017529343         0.015807581         0.020788650         0.019308413         0.046192695
     214     107.000         0.017725361         0.016024578         0.021770666         0.020235599         0.046196046
     215     107.500         0.017977031         0.016296724         0.022726620         0.021181644         0.046201558
     216     108.000         0.018194280         0.016533847         0.023554202         0.022038953         0.046207605
     217     108.500         0.018280473         0.016639236         0.024148596         0.022696166         0.046212096
     218     109.000         0.018164910         0.016542158         0.024435072         0.023071124         0.046213169
     219     109.500         0.017831293         0.016226318         0.024397334         0.023139598         0.046209887
     220     110.000         0.017331482         0.015743618         0.024091001         0.022949129         0.046202667
     221     110.500         0.016778058         0.015206712         0.023635753         0.022611467         0.046193277
     222     111.000         0.016315882         0.014760555         0.023186367         0.022273858         0.046184380
     223     111.500         0.016080104         0.014540388         0.022890096         0.022076623         0.046178721
     224     112.000         0.016153272         0.014628835         0.022843083         0.022109739         0.046178234
     225     112.500         0.016535557         0.015026101         0.023059816         0.022382466         0.046183353
     226     113.000         0.017138801         0.015644008         0.023466372         0.022816764         0.046192765
     227     113.500         0.017808010         0.016327478         0.023921090         0.023268180         0.046203724
     228     114.000         0.018365155         0.016898327         0.024257596         0.023569091         0.046212859
     229     114.500         0.018662523         0.017208632         0.024337465         0.023581591         0.046217226
     230     115.000         0.018629003         0.017187019         0.024095974         0.023243432         0.046215284
     231     115.500         0.018294043         0.016862649         0.023565738         0.022591765         0.046207463
     232     116.000         0.017780484         0.016358064         0.022869463         0.021755896         0.046196117
     233     116.500         0.017267138         0.015851802         0.022182725         0.020919909         0.046184849
     234     117.000         0.016931915         0.015521538         0.021677550         0.020265937         0.046177384
     235     117.500         0.016893152         0.015485442         0.021464416         0.019915701         0.046176357
     236     118.000         0.017168184         0.015760766         0.021551676         0.019889329         0.046182405
     237     118.500         0.017663423         0.016253937         0.021836563         0.020095675         0.046193862
     238     119.000         0.018200560         0.016786778         0.022132331         0.020358740         0.046207197
     239     119.500         0.018571934         0.017151871         0.022224495         0.020473206         0.046218086
     240     120.000         0.018608314         0.017180339         0.021939327         0.020272313         0.046222772
     241     120.500         0.018237626         0.016800553         0.021203113         0.019686610         0.046219312
     242     121.000         0.017515203         0.016068365         0.020072690         0.018774169         0.046208284
     243     121.500         0.016614530         0.015157817         0.018726221         0.017711207         0.046192712
     244     122.000         0.015779648         0.014313507         0.017415376         0.016744325         0.046177216
     245     122.500         0.015252703         0.013778113         0.016392427         0.016117839         0.046166612
     246     123.000         0.015198547         0.013716986         0.015834195         0.015998145         0.046164406