      18
 i =        0, time =        0.000, E =         0.0263238206
  C         4.4771740290        3.6007430242        1.6203347172
  H         5.2914269130        3.4771217500        2.3360601921
  H         4.6652969305        4.2496225919        0.7169972207
  C         3.2746720958        3.3557269678        1.9885808736
  H         2.4767287195        3.6147763877        1.3124012437
  H         3.0911230531        2.7969380467        2.8728860383
  C         2.7764531924       -0.1188205648        0.6340418265
  H         3.2660025378        0.5542424065        1.3646636991
  H         3.1686867450       -1.1269840028        0.6051915358
  C         2.1055456747        0.3599258832       -0.5186560307
  H         1.8527159579       -0.3243981506       -1.3087959690
  H         1.8996878962        1.4530197400       -0.5805099683
  C         5.1116933639       -2.0515129449       -2.6233265093
  H         5.6433098294       -2.4734497456       -3.5168235713
  H         4.8023478433       -1.0447070313       -2.6095052437
  C         4.8033693772       -2.8078097646       -1.5873221126
  H         4.3144525067       -2.4671592514       -0.6606981313
  H         5.0785902421       -3.8412268455       -1.6697060378
