      18
 i =        0, time =        0.000, E =         0.0263238206
  C        -0.0002125033       -0.0000682612       -0.0002231501
  H        -0.0007116230        0.0000393599       -0.0001201412
  H        -0.0006219488        0.0004601963        0.0004334093
  C         0.0000107888        0.0000257899        0.0000360444
  H        -0.0003106997       -0.0007187991       -0.0001825826
  H        -0.0003630711       -0.0012590651        0.0003702242
  C         0.0001999953       -0.0000288360       -0.0000189267
  H         0.0003813527       -0.0003935477        0.0011420591
  H        -0.0006671619        0.0002123968       -0.0007532058
  C        -0.0001034348       -0.0000956497       -0.0002210878
  H        -0.0006057785        0.0010962685        0.0000905322
  H        -0.0003046288        0.0003944675        0.0010892976
  C         0.0001019752       -0.0000209860        0.0001152504
  H         0.0016524128        0.0010464885       -0.0003759398
  H        -0.0004986346       -0.0004524722        0.0000518807
  C         0.0002250499        0.0000753484        0.0001373478
  H        -0.0006781679        0.0010115489       -0.0009804300
  H         0.0000844244       -0.0000953128        0.0013142706
      18
 i =     5000, time =     2500.000, E =         0.0249360624
  C         0.0002011314        0.0001362132        0.0000316494
  H         0.0001684800        0.0005002700       -0.0007492737
  H        -0.0000739169        0.0001562529       -0.0005705187
  C         0.0000959050       -0.0002540513        0.0001605953
  H         0.0007961698        0.0001026215       -0.0010526941
  H        -0.0009608109        0.0008120420        0.0008972598
  C        -0.0001918143       -0.0001304310       -0.0000532414
  H         0.0008650015        0.0002279346       -0.0009770228
  H         0.0007676642       -0.0004094818        0.0002911133
  C         0.0001741185        0.0001890352        0.0002212818
  H        -0.0001010278       -0.0005415849        0.0010290080
  H         0.0010407694       -0.0001271672       -0.0010010007
  C         0.0000585373       -0.0002414304       -0.0000806096
  H         0.0002784584        0.0001061001        0.0003134539
  H        -0.0002716624       -0.0005655987       -0.0010481024
  C        -0.0004174100        0.0001500840       -0.0000364399
  H        -0.0012027271        0.0004912219        0.0006010678
  H        -0.0003588203        0.0010414464       -0.0006314636
      18
 i =    10000, time =     5000.000, E =         0.0235512857
  C        -0.0001210397       -0.0000909031        0.0000402696
  H        -0.0009009394        0.0005191816       -0.0001283351
  H         0.0000585353        0.0009384925       -0.0004819089
  C        -0.0002271071        0.0000359103        0.0000201774
  H        -0.0007086117        0.0001978975       -0.0003677849
  H        -0.0006872830       -0.0004921583       -0.0006294580
  C        -0.0002954208       -0.0001279638       -0.0004211687
  H         0.0010619212        0.0003298947        0.0002963814
  H        -0.0003638657        0.0005190397        0.0000712829
  C         0.0004365590       -0.0000136445        0.0002773781
  H         0.0007148237       -0.0001536154        0.0013211282
  H        -0.0000824440        0.0001488242        0.0006564806
  C         0.0002185352        0.0002931722       -0.0001971546
  H         0.0008279540        0.0004760495        0.0005452719
  H         0.0013509146        0.0000618786       -0.0006158194
  C         0.0000033848       -0.0003087256        0.0002170547
  H        -0.0015810432        0.0002301747        0.0001114492
  H         0.0001323352       -0.0002480414       -0.0000229690
