#     Step Nr.          Time[fs]        Kin.[a.u.]          Temp[K]            Pot.[a.u.]        Cons Qty[a.u.]        UsedTime[s]
         0            0.000000         0.020027536       263.507834953         0.026323821         0.046351356         0.000000000
         1            0.500000         0.019497245       256.530649058         0.026861030         0.046358274         0.056060470
         2            1.000000         0.019269059       253.528350268         0.027092806         0.046361865         0.008909500
         3            1.500000         0.019398165       255.227034435         0.026962740         0.046360905         0.008358873
         4            2.000000         0.019868284       261.412516805         0.026487177         0.046355461         0.008141875
         5            2.500000         0.020593117       270.949348773         0.025753807         0.046346924         0.007593064
         6            3.000000         0.021438159       282.067792105         0.024899451         0.046337610         0.007171851
         7            3.500000         0.022256651       292.836926001         0.024073396         0.046330048         0.006963725
         8            4.000000         0.022928741       301.679797007         0.023397447         0.046326188         0.006764817
         9            4.500000         0.023391649       307.770400141         0.022935138         0.046326786         0.006403668
        10            5.000000         0.023651439       311.188536736         0.022679733         0.046331173         0.006230602
        11            5.500000         0.023772865       312.786166628         0.022564617         0.046337482         0.006056767
        12            6.000000         0.023850885       313.812704390         0.022492398         0.046343283         0.005840400
        13            6.500000         0.023973500       315.425977927         0.022372893         0.046346393         0.005738291
        14            7.000000         0.024188418       318.253720102         0.022157201         0.046345620         0.005852342
        15            7.500000         0.024484860       322.154088192         0.021856309         0.046341170         0.005379238
        16            8.000000         0.024796745       326.257648698         0.021537854         0.046334599         0.005289841
        17            8.500000         0.025026614       329.282091561         0.021301814         0.046328428         0.005475828
        18            9.000000         0.025152723       330.941350104         0.021228562         0.046381285         0.005044419
        19            9.500000         0.025352251       333.566586443         0.020825596         0.046177847         0.004909277
        20           10.000000         0.025512805       335.679043795         0.020668169         0.046180974         0.004802419
        21           10.500000         0.025418598       334.439538533         0.020769405         0.046188003         0.008242517
        22           11.000000         0.025178584       331.281598674         0.021017348         0.046195932         0.004632775
        23           11.500000         0.024915114       327.815059005         0.021286642         0.046201756         0.004458033
        24           12.000000         0.024717608       325.216414493         0.021485631         0.046203239         0.004514185
        25           12.500000         0.024608469       323.780448471         0.021591209         0.046199678         0.004357880
        26           13.000000         0.024532698       322.783502130         0.021659501         0.046192199         0.004299004
        27           13.500000         0.024375545       320.715792486         0.021807898         0.046183443         0.004251024
        28           14.000000         0.024003364       315.818905855         0.022173373         0.046176736         0.004147588
        29           14.500000         0.023314866       306.760153592         0.022860139         0.046175005         0.004128033
        30           15.000000         0.022285998       293.223046032         0.023893768         0.046179766         0.004007627
        31           15.500000         0.020993056       276.211455864         0.025197493         0.046190549         0.004025227
        32           16.000000         0.019605139       257.950241118         0.026599797         0.046204936         0.004009093
        33           16.500000         0.018346609       241.391418939         0.027872622         0.046219231         0.003909919
        34           17.000000         0.017439970       229.462511282         0.028789602         0.046229572         0.003895602
        35           17.500000         0.017046155       224.280977307         0.029186959         0.046233114         0.003986185
        36           18.000000         0.017220607       226.576298038         0.029008329         0.046228936         0.004018732
        37           18.500000         0.017898986       235.501920384         0.028319364         0.046218351         0.003874160
        38           19.000000         0.018917302       248.900184661         0.027287213         0.046204515         0.003846503
        39           19.500000         0.020060626       263.943207576         0.026130853         0.046191479         0.003873951
        40           20.000000         0.021125463       277.953570495         0.025057442         0.046182905         0.003871018
        41           20.500000         0.021976403       289.149623516         0.024204534         0.046180937         0.006744563
        42           21.000000         0.022579421       297.083691072         0.023606107         0.046185527         0.003873531
        43           21.500000         0.023001600       302.638421920         0.023192877         0.046194477         0.003862777
        44           22.000000         0.023377733       307.587314814         0.022826427         0.046204160         0.003863404
        45           22.500000         0.023854901       313.865542082         0.022355814         0.046210715         0.003865081
        46           23.000000         0.024533305       322.791490141         0.021678023         0.046211328         0.003870459
        47           23.500000         0.025422969       334.497047541         0.020782214         0.046205183         0.003890503
        48           24.000000         0.026430891       347.758552341         0.019762876         0.046193767         0.003884497
        49           24.500000         0.027383402       360.291011596         0.018797026         0.046180429         0.004261011
        50           25.000000         0.028077013       369.417035097         0.018092304         0.046169316         0.004017404
        51           25.500000         0.028341569       372.897872193         0.017822469         0.046164037         0.003878560
        52           26.000000         0.028095307       369.657741476         0.018071166         0.046166473         0.003851532
        53           26.500000         0.027373726       360.163694367         0.018802416         0.046176142         0.003884218
        54           27.000000         0.026322503       346.332458233         0.019867817         0.046190319         0.003931988
        55           27.500000         0.025156361       330.989214781         0.021048572         0.046204934         0.004193056
        56           28.000000         0.024099217       317.080078771         0.022117947         0.046217164         0.003890154
        57           28.500000         0.023579031       310.235838158         0.022685957         0.046264988         0.003904401
        58           29.000000         0.023713227       312.001491739         0.022541859         0.046255085         0.003868852
        59           29.500000         0.024165893       317.957341822         0.022075780         0.046241672         0.003869342
        60           30.000000         0.024729260       325.369727782         0.021496355         0.046225615         0.004033957
        61           30.500000         0.025160829       331.047990040         0.021051109         0.046211937         0.006752106
        62           31.000000         0.025255461       332.293100652         0.020949582         0.046205044         0.003894414
        63           31.500000         0.024912363       327.778860687         0.021294896         0.046207259         0.003893227
        64           32.000000         0.024170145       318.013290323         0.022047903         0.046218048         0.003882681
        65           32.500000         0.023198089       305.223680052         0.023036046         0.046234135         0.003880306
        66           33.000000         0.022245571       292.691138908         0.024004938         0.046250509         0.003890922
        67           33.500000         0.021565068       283.737572696         0.024696929         0.046261997         0.003876465
        68           34.000000         0.021332991       280.684075616         0.024931949         0.046264940         0.003863964
        69           34.500000         0.021593880       284.116667107         0.024664522         0.046258403         0.003864243
        70           35.000000         0.022246426       292.702394230         0.023998092         0.046244519         0.003876954
        71           35.500000         0.023076554       303.624616471         0.023151303         0.046227858         0.003846922
        72           36.000000         0.023827671       313.507264261         0.022386303         0.046213974         0.003870947
        73           36.500000         0.024285837       319.535477938         0.021921769         0.046207605         0.003876535
        74           37.000000         0.024352232       320.409064524         0.021858861         0.046211093         0.003876675
        75           37.500000         0.024078770       316.811045825         0.022144775         0.046223545         0.003869970
        76           38.000000         0.023654151       311.224216503         0.022586882         0.046241033         0.003846573
        77           38.500000         0.023343529       307.137281531         0.022914258         0.046257787         0.003862916
        78           39.000000         0.023400144       307.882178921         0.022867881         0.046268025         0.003859074
        79           39.500000         0.023976893       315.470622270         0.022290926         0.046267819         0.003875767
        80           40.000000         0.025066559       329.807659457         0.021189866         0.046256425         0.003869481
        81           40.500000         0.026490942       348.548658033         0.019745689         0.046236631         0.006772011
        82           41.000000         0.027944054       367.667659051         0.018269928         0.046213982         0.003874719
        83           41.500000         0.029077512       382.580876899         0.017117617         0.046195128         0.003874509
        84           42.000000         0.029602671       389.490539892         0.016583122         0.046185793         0.003887779
        85           42.500000         0.029378261       386.537919761         0.016810720         0.046188981         0.003885964
        86           43.000000         0.028456319       374.407666148         0.017747732         0.046204050         0.003874370
        87           43.500000         0.027072318       356.197981897         0.019154865         0.046227182         0.004018312
        88           44.000000         0.026032871       342.521696503         0.020249788         0.046282660         0.003869411
        89           44.500000         0.025687588       337.978711665         0.020608465         0.046296053         0.003861938
        90           45.000000         0.025801900       339.482741867         0.020497250         0.046299150         0.003853208
        91           45.500000         0.026423431       347.660404371         0.019866612         0.046290043         0.003857399
        92           46.000000         0.027413250       360.683722381         0.018858027         0.046271277         0.003925982
        93           46.500000         0.028484393       374.777047156         0.017764176         0.046248569         0.003887011
        94           47.000000         0.029289786       385.373829395         0.016939245         0.046229032         0.003862288
        95           47.500000         0.029531475       388.553801693         0.016687468         0.046218944         0.003872344
        96           48.000000         0.029057030       382.311394000         0.017164746         0.046221776         0.003875487
        97           48.500000         0.027912718       367.255368075         0.018324350         0.046237069         0.003853278
        98           49.000000         0.026336289       346.513847947         0.019924244         0.046260533         0.003849437
        99           49.500000         0.024690862       324.864516705         0.021594474         0.046285337         0.003859633
       100           50.000000         0.023359726       307.350379457         0.022944465         0.046304191         0.003837145
       101           50.500000         0.022634047       297.802427395         0.023677537         0.046311584         0.006716067
       102           51.000000         0.022627917       297.721777199         0.023677566         0.046305483         0.003874440
       103           51.500000         0.023246860       305.865380086         0.023041110         0.046287970         0.003865570
       104           52.000000         0.024219611       318.664131396         0.022044991         0.046264602         0.003849856
       105           52.500000         0.025183484       331.346079977         0.021059223         0.046242707         0.005380983
       106           53.000000         0.025797100       339.419588136         0.020432018         0.046229118         0.003914878
       107           53.500000         0.025845756       340.059768304         0.020382310         0.046228065         0.003850903
       108           54.000000         0.025307051       332.971877699         0.020932829         0.046239880         0.003833653
       109           54.500000         0.024356777       320.468867302         0.021904140         0.046260918         0.003879887
       110           55.000000         0.023313771       306.745745002         0.022970952         0.046284723         0.003834770
       111           55.500000         0.022541357       296.582882135         0.023762696         0.046304053         0.003818427
       112           56.000000         0.022336305       293.884952081         0.023976816         0.046313121         0.003842103
       113           56.500000         0.022839625       300.507269178         0.023469723         0.046309348         0.003845945
       114           57.000000         0.023996154       315.724041719         0.022297929         0.046294083         0.003836446
       115           57.500000         0.025574182       336.486601043         0.020697906         0.046272089         0.003840077
       116           58.000000         0.027237492       358.371227217         0.019012489         0.046249981         0.004013284
       117           58.500000         0.028646121       376.904944874         0.017588014         0.046234135         0.003827856
       118           59.000000         0.029553933       388.849287984         0.016674797         0.046228731         0.004244947
       119           59.500000         0.029873027       393.047690815         0.016361511         0.046234538         0.003840567
       120           60.000000         0.029686283       390.590649839         0.016562525         0.046248808         0.003856281
       121           60.500000         0.029206232       384.274488104         0.017060039         0.046266272         0.006779763
       122           61.000000         0.028695351       377.552676352         0.017585561         0.046280911         0.003845246
       123           61.500000         0.028374657       373.333220055         0.017913256         0.046287913         0.003864522
       124           62.000000         0.028350431       373.014475375         0.017934758         0.046285189         0.003840776
       125           62.500000         0.028582296       376.065187493         0.017691697         0.046273993         0.004187259
       126           63.000000         0.028902067       380.272499577         0.017356378         0.046258445         0.003852789
       127           63.500000         0.029076220       382.563884031         0.017167918         0.046244138         0.003854115
       128           64.000000         0.028890897       380.125536735         0.017345405         0.046236302         0.003821291
       129           64.500000         0.028231409       371.448464807         0.018006697         0.046238106         0.003844198
       130           65.000000         0.027130317       356.961093327         0.019119313         0.046249629         0.004741658
       131           65.500000         0.025768421       339.042257648         0.020499412         0.046267833         0.003904332
       132           66.000000         0.024428012       321.406115561         0.021859484         0.046287495         0.003869900
       133           66.500000         0.023412731       308.047786834         0.022890098         0.046302829         0.003889455
       134           67.000000         0.022958776       302.074971505         0.023350491         0.046309267         0.003869621
       135           67.500000         0.023164765       304.785229138         0.023140098         0.046304863         0.003849436
       136           68.000000         0.023961754       315.271429662         0.022329121         0.046290875         0.003847342
       137           68.500000         0.025132431       330.674355076         0.021138937         0.046271368         0.003872973
       138           69.000000         0.026373449       347.002773617         0.019878512         0.046251961         0.003862287
       139           69.500000         0.027381747       360.269226392         0.018856371         0.046238118         0.003838891
       140           70.000000         0.027938698       367.597188606         0.018294815         0.046233513         0.003873741
       141           70.500000         0.027967019       367.969818448         0.018271953         0.046238972         0.006810912
       142           71.000000         0.027544155       362.406076984         0.018708155         0.046252310         0.003841824
       143           71.500000         0.026869474       353.529115028         0.019399609         0.046269083         0.003835468
       144           72.000000         0.026196749       344.677879505         0.020087267         0.046284016         0.003860472
       145           72.500000         0.025753676       338.848243693         0.020538969         0.046292644         0.003997918
       146           73.000000         0.025673542       337.793908201         0.020619114         0.046292656         0.003854885
       147           73.500000         0.025959649       341.558287775         0.020324888         0.046284537         0.003860820
       148           74.000000         0.026492341       348.567073864         0.019778978         0.046271319         0.003850345
       149           74.500000         0.027074958       356.232722165         0.019182593         0.046257551         0.003846433
       150           75.000000         0.027502866       361.862831590         0.018744934         0.046247801         0.003841405
       151           75.500000         0.027632889       363.573568737         0.018612312         0.046245200         0.003859843
       152           76.000000         0.027430754       360.914023928         0.018819703         0.046250457         0.003988490
       153           76.500000         0.026981630       355.004777705         0.019280034         0.046261664         0.003848459
       154           77.000000         0.026460825       348.152398877         0.019814120         0.046274944         0.003853906
       155           77.500000         0.026074568       343.070307760         0.020211160         0.046285727         0.003837005
       156           78.000000         0.025990329       341.961956505         0.020299905         0.046290234         0.003882611
       157           78.500000         0.026279380       345.765083952         0.020007330         0.046286710         0.003841125
       158           79.000000         0.026890271       353.802737695         0.019385723         0.046275993         0.003863266
       159           79.500000         0.027661901       363.955292153         0.018599357         0.046261258         0.003858655
       160           80.000000         0.028372162       373.300392220         0.017874846         0.046247008         0.003859214
       161           80.500000         0.028806759       379.018501289         0.017430893         0.046237652         0.006806094
       162           81.000000         0.028826498       379.278223421         0.017409621         0.046236120         0.003852928
       163           81.500000         0.028411953       373.823932851         0.017831010         0.046242963         0.003834910
       164           82.000000         0.027671714       364.084404608         0.018584493         0.046256206         0.003850903
       165           82.500000         0.026812005       352.772970396         0.019459990         0.046271994         0.003853348
       166           83.000000         0.026077404       343.107621914         0.020208387         0.046285791         0.003851531
       167           83.500000         0.025681089       337.893203395         0.020612675         0.046293764         0.004103100
       168           84.000000         0.025745671       338.742921325         0.020548223         0.046293894         0.004902223
       169           84.500000         0.026271724       345.664347144         0.020014767         0.046286491         0.004024179
       170           85.000000         0.027142062       357.115631912         0.019131921         0.046273983         0.003859563
       171           85.500000         0.028158643       370.491071112         0.018101427         0.046260070         0.004257798
       172           86.000000         0.029099380       382.868599184         0.017149170         0.046248550         0.003862776
       173           86.500000         0.029776973       391.783879420         0.016465227         0.046242200         0.003862427
       174           87.000000         0.030082550       395.804448083         0.016159498         0.046242048         0.003843710
       175           87.500000         0.030002840       394.755671941         0.016244411         0.046247250         0.003866268
       176           88.000000         0.029608667       389.569434372         0.016646898         0.046255565         0.003843570
       177           88.500000         0.029021985       381.850299173         0.017242397         0.046264382         0.003849367
       178           89.000000         0.028402292       373.696829299         0.017888336         0.046290629         0.003987582
       179           89.500000         0.028303523       372.397290618         0.017770982         0.046074505         0.003856071
       180           90.000000         0.028710324       377.749681754         0.017356264         0.046066588         0.003854186
       181           90.500000         0.029071671       382.504031678         0.016987413         0.046059084         0.006769497
       182           91.000000         0.029275807       385.189899830         0.016777489         0.046053295         0.003847411
       183           91.500000         0.029238722       384.701965414         0.016812360         0.046051082         0.003856770
       184           92.000000         0.028930617       380.648141477         0.017122662         0.046053279         0.003848249
       185           92.500000         0.028388304       373.512774179         0.017671100         0.046059403         0.003865220
       186           93.000000         0.027707775       364.558873859         0.018360059         0.046067835         0.003883450
       187           93.500000         0.027019527       355.503401472         0.019056812         0.046076339         0.003913411
       188           94.000000         0.026454642       348.071047702         0.019628126         0.046082768         0.003858306
       189           94.500000         0.026112192       343.565346080         0.019973494         0.046085686         0.003866408
       190           95.000000         0.026037575       342.583583368         0.020047177         0.046084752         0.003840497
       191           95.500000         0.026217442       344.950143021         0.019863282         0.046080724         0.003840357
       192           96.000000         0.026591368       349.870000021         0.019483759         0.046075127         0.003911176
       193           96.500000         0.027075097       356.234553411         0.018994599         0.046069697         0.004022084
       194           97.000000         0.027586894       362.968403524         0.018478905         0.046065798         0.003857329
       195           97.500000         0.028068224       369.301392137         0.017995799         0.046064023         0.003876465
       196           98.000000         0.028492607       374.885119171         0.017571473         0.046064080         0.003865081
       197           98.500000         0.028861120       379.733747121         0.017203900         0.046065019         0.003853766
       198           99.000000         0.029187896       384.033227684         0.016877784         0.046065680         0.003858307
       199           99.500000         0.029482415       387.908298108         0.016582772         0.046065187         0.003877512
       200          100.000000         0.029736176       391.247105819         0.016327144         0.046063320         0.003872694
       201          100.500000         0.029919289       393.656370681         0.016141325         0.046060614         0.006731293
       202          101.000000         0.029988453       394.566377384         0.016069694         0.046058147         0.003871856
       203          101.500000         0.029903252       393.445375073         0.016153876         0.046057128         0.003871227
       204          102.000000         0.029644489       390.040749836         0.016413972         0.046058461         0.003865779
       205          102.500000         0.029228234       384.563973383         0.016834490         0.046062725         0.003903564
       206          103.000000         0.028720849       377.888164065         0.017353680         0.046074529         0.003849157
       207          103.500000         0.028269855       371.954309389         0.017813593         0.046083448         0.003870598
       208          104.000000         0.028164432       370.567239120         0.018045643         0.046210076         0.003868853
       209          104.500000         0.028359214       373.130029305         0.017841661         0.046200875         0.003883239
       210          105.000000         0.028558240       375.748667826         0.017639239         0.046197478         0.003883589
       211          105.500000         0.028702408       377.645538818         0.017491748         0.046194157         0.003863545
       212          106.000000         0.028745409       378.211310458         0.017446777         0.046192186         0.003867106
       213          106.500000         0.028663352       377.131660267         0.017529343         0.046192695         0.003855513
       214          107.000000         0.028470685       374.596689447         0.017725361         0.046196046         0.003875487
       215          107.500000         0.028224527       371.357919498         0.017977031         0.046201558         0.003863544
       216          108.000000         0.028013324       368.579068901         0.018194280         0.046207605         0.004040522
       217          108.500000         0.027931623       367.504103114         0.018280473         0.046212096         0.003868084
       218          109.000000         0.028048259       369.038710525         0.018164910         0.046213169         0.003874370
       219          109.500000         0.028378594       373.385025631         0.017831293         0.046209887         0.003891272
       220          110.000000         0.028871184       379.866169580         0.017331482         0.046202667         0.003872065
       221          110.500000         0.029415220       387.024192948         0.016778058         0.046193277         0.006759299
       222          111.000000         0.029868498       392.988104720         0.016315882         0.046184380         0.003879119
       223          111.500000         0.030098617       396.015838659         0.016080104         0.046178721         0.003884986
       224          112.000000         0.030024962       395.046745255         0.016153272         0.046178234         0.003895741
       225          112.500000         0.029647796       390.084267442         0.016535557         0.046183353         0.003484726
       226          113.000000         0.029053964       382.271047162         0.017138801         0.046192765         0.003564904
       227          113.500000         0.028395714       373.610270591         0.017808010         0.046203724         0.003475646