      18
 i =        0, time =        0.000, E =         0.0378328318
  C         4.4771740290        3.6007430242        1.6203347172
  H         5.2914269130        3.4771217500        2.3360601921
  H         4.6652969305        4.2496225919        0.7169972207
  C         3.2746720958        3.3557269678        1.9885808736
  H         2.4767287195        3.6147763877        1.3124012437
  H         3.0911230531        2.7969380467        2.8728860383
  C         2.7764531924       -0.1188205648        0.6340418265
  H         3.2660025378        0.5542424065        1.3646636991
  H         3.1686867450       -1.1269840028        0.6051915358
  C         2.1055456747        0.3599258832       -0.5186560307
  H         1.8527159579       -0.3243981506       -1.3087959690
  H         1.8996878962        1.4530197400       -0.5805099683
  C         5.1116933639       -2.0515129449       -2.6233265093
  H         5.6433098294       -2.4734497456       -3.5168235713
  H         4.8023478433       -1.0447070313       -2.6095052437
  C         4.8033693772       -2.8078097646       -1.5873221126
  H         4.3144525067       -2.4671592514       -0.6606981313
  H         5.0785902421       -3.8412268455       -1.6697060378
      18
 i =        1, time =        0.500, E =         0.0385432943
  C         4.4753015692        3.6002532892        1.6177343178
  H         5.2835649419        3.4769568520        2.3344949151
  H         4.6581657788        4.2534870183        0.7226698947
  C         3.2744203848        3.3558970589        1.9889918513
  H         2.4728693634        3.6069361618        1.3104285818
  H         3.0868644030        2.7829519584        2.8778025470
  C         2.7786056246       -0.1189734692        0.6334245870
  H         3.2690606219        0.5498725556        1.3767922332
  H         3.1607440388       -1.1249537494        0.5972243251
  C         2.1046591577        0.3588394594       -0.5206015178
  H         1.8458198003       -0.3124805007       -1.3082089274
  H         1.8963429775        1.4563235509       -0.5689043816
  C         5.1128189587       -2.0517935241       -2.6221107620
  H         5.6607121693       -2.4615702840       -3.5199583667
  H         4.7968469150       -1.0484166507       -2.6090577123
  C         4.8058363250       -2.8070303068       -1.5857869172
  H         4.3071683352       -2.4558933907       -0.6722476310
  H         5.0796316589       -3.8427869410       -1.6550307409
      18
 i =        2, time =        1.000, E =         0.0384697438
  C         4.4743093971        3.6002687461        1.6148346095
  H         5.2758157182        3.4755975756        2.3325392211
  H         4.6504970242        4.2551701326        0.7298944188
  C         3.2733857348        3.3557960205        1.9894829100
  H         2.4682528426        3.5991912126        1.3085905027
  H         3.0822803880        2.7690007160        2.8837785626
  C         2.7806702733       -0.1187747730        0.6319827249
  H         3.2697126773        0.5451610035        1.3878286205
  H         3.1517375253       -1.1238287903        0.5898888427
  C         2.1042810864        0.3577535349       -0.5215287245
  H         1.8382801150       -0.3011644711       -1.3088370269
  H         1.8930078820        1.4573167022       -0.5580395341
  C         5.1140021139       -2.0521826578       -2.6210318699
  H         5.6764768962       -2.4488456714       -3.5207024473
  H         4.7911860837       -1.0495651045       -2.6088172852
  C         4.8083078437       -2.8063419912       -1.5841946964
  H         4.3000826951       -2.4442984307       -0.6852092151
  H         5.0809707782       -3.8452822281       -1.6398103849
      18
 i =        3, time =        1.500, E =         0.0375808133
  C         4.4741481885        3.6007625327        1.6116736851
  H         5.2684835226        3.4730625189        2.3303121416
  H         4.6424683802        4.2549749183        0.7381907967
  C         3.2715424506        3.3553784468        1.9900981305
  H         2.4630437200        3.5915898197        1.3069805484
  H         3.0776183018        2.7555780435        2.8901042524
  C         2.7826343354       -0.1182129453        0.6297244692
  H         3.2678440366        0.5399548799        1.3974704149
  H         3.1418772712       -1.1238682361        0.5832633892
  C         2.1044179835        0.3567343137       -0.5213967235
  H         1.8300422235       -0.2908144438       -1.3109470432
  H         1.8897113469        1.4558531604       -0.5480040660
  C         5.1152681276       -2.0526663526       -2.6201217964
  H         5.6904072592       -2.4353769291       -3.5187865680
  H         4.7853494749       -1.0482546311       -2.6087538259
  C         4.8107818433       -2.8057515838       -1.5825596330
  H         4.2930967279       -2.4324321921       -0.6992890786
  H         5.0826479169       -3.8485440545       -1.6240962805
      18
 i =        4, time =        2.000, E =         0.0359652744
  C         4.4747458153        3.6016916508        1.6083060988
  H         5.2618895141        3.4693925180        2.3279271331
  H         4.6343044561        4.2533261147        0.7469476635
  C         3.2688846709        3.3546038021        1.9908747300
  H         2.4573962374        3.5841781567        1.3056946213
  H         3.0731077189        2.7431701084        2.8960902775
  C         2.7844898157       -0.1172941538        0.6266691676
  H         3.2634134077        0.5341730842        1.4054952402
  H         3.1313470456       -1.1252484893        0.5774167182
  C         2.1050633017        0.3558297237       -0.5201990317
  H         1.8211135063       -0.2816822593       -1.3146363449
  H         1.8864721215        1.4519463778       -0.5388501153
  C         5.1166284991       -2.0532110409       -2.6193954501
  H         5.7024206282       -2.4213450259       -3.5141265313
  H         4.7793739440       -1.0447626725       -2.6088412991
  C         4.8132593091       -2.8052696334       -1.5808998339
  H         4.2860910869       -2.4203425632       -0.7141592076
  H         5.0846837415       -3.8523446951       -1.6079400234
      18
 i =        5, time =        2.500, E =         0.0338222848
  C         4.4760109711        3.6030000301        1.6047998327
  H         5.2563517454        3.4646501026        2.3254791173
  H         4.6262614891        4.2507358887        0.7554696028
  C         3.2654277151        3.3534395348        1.9918392279
  H         2.4514450883        3.5770003445        1.3048253549
  H         3.0689457815        2.7322168167        2.9011209167
  C         2.7862337059       -0.1160437736        0.6228460543
  H         3.2564563338        0.5278132438        1.4117733700
  H         3.1202977041       -1.1280468824        0.5724081454
  C         2.1061969290        0.3550676911       -0.5179647339
  H         1.8115724472       -0.2738960042       -1.3198191327
  H         1.8832964625        1.4457736871       -0.5305913354
  C         5.1180803246       -2.0537662603       -2.6188500576
  H         5.7125579715       -2.4070026617       -3.5068270011
  H         4.7733458194       -1.0395194327       -2.6090585939
  C         4.8157431882       -2.8049085857       -1.5792354516
  H         4.2789372240       -2.4080746710       -0.7294804535
  H         5.0870825564       -3.8564118305       -1.5913960275
      18
 i =        6, time =        3.000, E =         0.0314251216
  C         4.4778373515        3.6046223738        1.6012324210
  H         5.2521654426        3.4589183816        2.3230324675
  H         4.6186106738        4.2477615871        0.7630313308
  C         3.2612086112        3.3518638509        1.9930043437
  H         2.4452979778        3.5700983443        1.3044568733
  H         3.0652849539        2.7230765105        2.9047003017
  C         2.7878680858       -0.1145066023        0.6182932153
  H         3.2470832032        0.5209522157        1.4162737656
  H         3.1088445736       -1.1322330248        0.5682868936
  C         2.1077852352        0.3544564348       -0.5147577367
  H         1.8015724468       -0.2674609863       -1.3262279059
  H         1.8801768044        1.4376675396       -0.5232030073
  C         5.1196069844       -2.0542688421       -2.6184659244
  H         5.7209834922       -2.3926600663       -3.4971705050
  H         4.7673926662       -1.0330735265       -2.6093898580
  C         4.8182370239       -2.8046804937       -1.5775867562
  H         4.2715100047       -2.3956792101       -0.7449251383
  H         5.0898367079       -3.8604466214       -1.5745238896
      18
 i =        7, time =        3.500, E =         0.0290671066
  C         4.4801081212        3.6064884917        1.5976864985
  H         5.2495848523        3.4522994223        2.3206110285
  H         4.6116215332        4.2449589829        0.7689345942
  C         3.2562857215        3.3498678910        1.9943668627
  H         2.4390303941        3.5635117312        1.3046602983
  H         3.0622242696        2.7159971318        2.9064884812
  C         2.7894001331       -0.1127457335        0.6130568259
  H         3.2354720842        0.5137402616        1.4190629396
  H         3.0970687961       -1.1376687583        0.5650905009
  C         2.1097817217        0.3539866805       -0.5106741371
  H         1.7913394102       -0.2622721186       -1.3334304133
  H         1.8770918634        1.4280941732       -0.5166243235
  C         5.1211800770       -2.0546482409       -2.6182084971
  H         5.7279741963       -2.3786662360       -3.4855925956
  H         4.7616708016       -1.0260484468       -2.6098244488
  C         4.8207434593       -2.8045945331       -1.5759723405
  H         4.2637005616       -2.3832210434       -0.7601972139
  H         5.0929317041       -3.8641439205       -1.5573902527
      18
 i =        8, time =        4.000, E =         0.0270038980
  C         4.4827004139        3.6085277900        1.5942450775
  H         5.2488077524        3.4449121426        2.3181911317
  H         4.6055466031        4.2428348966        0.7725634719
  C         3.2507374368        3.3474570961        1.9959066339
  H         2.4326828715        3.5572774134        1.3054902906
  H         3.0598047799        2.7110963332        2.9063247991
  C         2.7908420263       -0.1108401421        0.6071906854
  H         3.2218571396        0.5063895185        1.4202965470
  H         3.0850221630       -1.1441169500        0.5628423741
  C         2.1121282909        0.3536355192       -0.5058378356
  H         1.7811626356       -0.2581359079       -1.3408610573
  H         1.8740083712        1.4176214081       -0.5107626288
  C         5.1227624500       -2.0548325533       -2.6180315417
  H         5.7339000070       -2.3653873030       -3.4726452718
  H         4.7563497033       -1.0190933099       -2.6103566122
  C         4.8232627478       -2.8046545624       -1.5744076195
  H         4.2554282123       -2.3707870876       -0.7750482985
  H         5.0963516058       -3.8672129875       -1.5400699117
      18
 i =        9, time =        4.500, E =         0.0254010934
  C         4.4855950907        3.6106959217        1.5909524857
  H         5.2499634480        3.4368897047        2.3156983464
  H         4.6006083683        4.2418032340        0.7734339419
  C         3.2445545305        3.3446292793        1.9976211656
  H         2.4262608754        3.5514293622        1.3069828311
  H         3.0580095230        2.7083522212        2.9042370144
  C         2.7922109268       -0.1088812646        0.6007563509
  H         3.2065137621        0.4991577166        1.4202041860
  H         3.0727346446       -1.1512586346        0.5615487899
  C         2.1147568986        0.3533716274       -0.5003949932
  H         1.7713791942       -0.2547994682       -1.3478644742
  H         1.8708845134        1.4068782269       -0.5054991744
  C         5.1242863057       -2.0548192509       -2.6177913593
  H         5.7391958263       -2.3531838178       -3.4589517316
  H         4.7515947367       -1.0128317925       -2.6109849934
  C         4.8258171871       -2.8047924468       -1.5729935510
  H         4.2466502916       -2.3584924761       -0.7892883643
  H         5.1000842335       -3.8693970295       -1.5226460134
      18
 i =       10, time =        5.000, E =         0.0243419324
  C         4.4885616843        3.6129108196        1.5879139638
  H         5.2531087976        3.4283770031        2.3130096189
  H         4.5969914278        4.2421509003        0.7712315379
  C         3.2379562283        3.3414417158        1.9994230873
  H         2.4197329689        3.5459981200        1.3091533071
  H         3.0567649721        2.7076031574        2.9004384957
  C         2.7935280218       -0.1069681177        0.5938221316
  H         3.1897419750        0.4923289442        1.4190685191
  H         3.0602234817       -1.1587173284        0.5611959028
  C         2.1175925136        0.3531606377       -0.4945060631
  H         1.7623526522       -0.2519835850       -1.3537479013
  H         1.8676750069        1.3965094968       -0.5006958835
  C         5.1257356272       -2.0544858117       -2.6175230817
  H         5.7443252180       -2.3423892719       -3.4451517934
  H         4.7475499719       -1.0078172065       -2.6117100547
  C         4.8283720571       -2.8050617001       -1.5716442889
  H         4.2373709438       -2.3464837079       -0.8027943236
  H         5.1041257553       -3.8704856830       -1.5052115486
