       0       0.000         0.037832832         0.028672597         0.017163838         0.025455189         0.057860368
       1       0.500         0.038543294         0.029406527         0.017644932         0.026179994         0.057868792
       2       1.000         0.038469744         0.029356992         0.017657918         0.026262841         0.057870808
       3       1.500         0.037580813         0.028492603         0.017171276         0.025668071         0.057865280
       4       2.000         0.035965274         0.026902311         0.016265684         0.024476710         0.057852799
       5       2.500         0.033822285         0.024785627         0.015124368         0.022876984         0.057835643
       6       3.000         0.031425122         0.022416323         0.013997221         0.021128428         0.057817227
       7       3.500         0.029067107         0.020088318         0.013147371         0.019508290         0.057801205
       8       4.000         0.027003898         0.018057933         0.012794390         0.018254376         0.057989949
       9       4.500         0.025401093         0.016491343         0.013082014         0.017551562         0.057985908
      10       5.000         0.024341932         0.015472093         0.014029169         0.017423702         0.057988015
