      18
 i =        0, time =        0.000, E =         0.0378328318
  C        -0.0002125033       -0.0000682612       -0.0002231501
  H        -0.0007116230        0.0000393599       -0.0001201412
  H        -0.0006219488        0.0004601963        0.0004334093
  C         0.0000107888        0.0000257899        0.0000360444
  H        -0.0003106997       -0.0007187991       -0.0001825826
  H        -0.0003630711       -0.0012590651        0.0003702242
  C         0.0001999953       -0.0000288360       -0.0000189267
  H         0.0003813527       -0.0003935477        0.0011420591
  H        -0.0006671619        0.0002123968       -0.0007532058
  C        -0.0001034348       -0.0000956497       -0.0002210878
  H        -0.0006057785        0.0010962685        0.0000905322
  H        -0.0003046288        0.0003944675        0.0010892976
  C         0.0001019752       -0.0000209860        0.0001152504
  H         0.0016524128        0.0010464885       -0.0003759398
  H        -0.0004986346       -0.0004524722        0.0000518807
  C         0.0002250499        0.0000753484        0.0001373478
  H        -0.0006781679        0.0010115489       -0.0009804300
  H         0.0000844244       -0.0000953128        0.0013142706
      18
 i =        1, time =        0.500, E =         0.0385432943
  C        -0.0001309432       -0.0000216794       -0.0002514115
  H        -0.0007135922       -0.0000696705       -0.0001609446
  H        -0.0006765080        0.0002535797        0.0005895347
  C        -0.0000587999        0.0000031564        0.0000412323
  H        -0.0003874348       -0.0007124029       -0.0001741901
  H        -0.0004042008       -0.0012770235        0.0004979004
  C         0.0001927640        0.0000020932       -0.0000941221
  H         0.0001695915       -0.0004151136        0.0010588753
  H        -0.0007747537        0.0001442257       -0.0006994905
  C        -0.0000578047       -0.0000992987       -0.0001313117
  H        -0.0006598666        0.0010620182       -0.0000018768
  H        -0.0003053454        0.0001964154        0.0010271300
  C         0.0001055336       -0.0000306128        0.0001048886
  H         0.0015160762        0.0011246593       -0.0001773045
  H        -0.0005102073       -0.0002220639        0.0000314468
  C         0.0002257387        0.0000670923        0.0001429551
  H        -0.0006568482        0.0010449747       -0.0011204087
  H         0.0001088150       -0.0001853727        0.0013665389
      18
 i =        2, time =        1.000, E =         0.0384697438
  C        -0.0000527214        0.0000232777       -0.0002770333
  H        -0.0006893760       -0.0001780111       -0.0001911958
  H        -0.0007175326        0.0000680123        0.0007094649
  C        -0.0001315512       -0.0000237059        0.0000505683
  H        -0.0004491330       -0.0007014857       -0.0001576106
  H        -0.0004226420       -0.0012512696        0.0005623145
  C         0.0001841535        0.0000347638       -0.0001691335
  H        -0.0000556105       -0.0004533398        0.0009452057
  H        -0.0008624054        0.0000496191       -0.0006381584
  C        -0.0000110241       -0.0000962268       -0.0000363491
  H        -0.0007211976        0.0009903617       -0.0001251601
  H        -0.0003031338       -0.0000215017        0.0009553595
  C         0.0001119522       -0.0000398972        0.0000909162
  H         0.0013573711        0.0011973058        0.0000535633
  H        -0.0005255513        0.0000074060        0.0000138907
  C         0.0002260611        0.0000584508        0.0001475201
  H        -0.0006432172        0.0010724182       -0.0012360724
  H         0.0001378740       -0.0002631593        0.0014140231
      18
 i =        3, time =        1.500, E =         0.0375808133
  C         0.0000199488        0.0000650414       -0.0002984201
  H        -0.0006365708       -0.0002836350       -0.0002108199
  H        -0.0007401670       -0.0000842906        0.0007795087
  C        -0.0002057449       -0.0000544966        0.0000636205
  H        -0.0004962586       -0.0006862511       -0.0001323716
  H        -0.0004192854       -0.0011807245        0.0005627720
  C         0.0001745924        0.0000676795       -0.0002428842
  H        -0.0002879414       -0.0005022610        0.0008075463
  H        -0.0009320547       -0.0000648949       -0.0005701044
  C         0.0000357553       -0.0000879380        0.0000607806
  H        -0.0007846906        0.0008905375       -0.0002650885
  H        -0.0002987515       -0.0002454791        0.0008771539
  C         0.0001200528       -0.0000470077        0.0000748012
  H         0.0011858955        0.0012570625        0.0003005870
  H        -0.0005399363        0.0002195206       -0.0000010977
  C         0.0002263329        0.0000490178        0.0001506091
  H        -0.0006395605        0.0010950296       -0.0013233125
  H         0.0001697206       -0.0003228274        0.0014568034
      18
 i =        4, time =        2.000, E =         0.0359652744
  C         0.0000851483        0.0001022767       -0.0003142058
  H        -0.0005545470       -0.0003845340       -0.0002209189
  H        -0.0007408217       -0.0001937673        0.0007898192
  C        -0.0002795063       -0.0000886282        0.0000795861
  H        -0.0005301768       -0.0006668891       -0.0000985145
  H        -0.0003964234       -0.0010678484        0.0005035749
  C         0.0001645283        0.0000991535       -0.0003144143
  H        -0.0005205352       -0.0005549977        0.0006537922
  H        -0.0009864083       -0.0001910071       -0.0004961963
  C         0.0000813161       -0.0000761818        0.0001568772
  H        -0.0008442588        0.0007733468       -0.0004055458
  H        -0.0002932262       -0.0004607356        0.0007959409
  C         0.0001285463       -0.0000502771        0.0000581315
  H         0.0010125155        0.0012969960        0.0005466753
  H        -0.0005486906        0.0003992884       -0.0000139310
  C         0.0002267845        0.0000385337        0.0001519493
  H        -0.0006472350        0.0011133893       -0.0013800565
  H         0.0002027087       -0.0003596383        0.0014947380
      18
 i =        5, time =        2.500, E =         0.0338222848
  C         0.0001413150        0.0001339642       -0.0003233399
  H        -0.0004444901       -0.0004787758       -0.0002237366
  H        -0.0007173673       -0.0002543562        0.0007351891
  C        -0.0003508749       -0.0001252440        0.0000973453
  H        -0.0005530149       -0.0006435923       -0.0000565778
  H        -0.0003575809       -0.0009184842        0.0003935667
  C         0.0001544217        0.0001274198       -0.0003828672
  H        -0.0007464584       -0.0006043297        0.0004926895
  H        -0.0010285945       -0.0003192651       -0.0004173269
  C         0.0001244204       -0.0000627734        0.0002487232
  H        -0.0008932275        0.0006500585       -0.0005298536
  H        -0.0002877608       -0.0006526898        0.0007152338
  C         0.0001361474       -0.0000483524        0.0000424889
  H         0.0008485139        0.0013111978        0.0007750649
  H        -0.0005476677        0.0005343142       -0.0000250748
  C         0.0002275328        0.0000269297        0.0001514417
  H        -0.0006665055        0.0011273690       -0.0014063196
  H         0.0002355436       -0.0003703414        0.0015274611
      18
 i =        6, time =        3.000, E =         0.0314251216
  C         0.0001872819        0.0001594586       -0.0003251526
  H        -0.0003093166       -0.0005645532       -0.0002225217
  H        -0.0006691966       -0.0002640640        0.0006154887
  C        -0.0004178832       -0.0001632609        0.0001155389
  H        -0.0005674793       -0.0006165684       -0.0000075448
  H        -0.0003072423       -0.0007414065        0.0002453529
  C         0.0001447383        0.0001507544       -0.0004474685
  H        -0.0009591961       -0.0006432801        0.0003332083
  H        -0.0010618001       -0.0004398187       -0.0003344916
  C         0.0001638619       -0.0000494133        0.0003332553
  H        -0.0009248580        0.0005313312       -0.0006221756
  H        -0.0002836140       -0.0008081357        0.0006384362
  C         0.0001416906       -0.0000403156        0.0000293259
  H         0.0007046801        0.0012952662        0.0009706308
  H        -0.0005336684        0.0006157627       -0.0000350074
  C         0.0002285638        0.0000143554        0.0001491578
  H        -0.0006964722        0.0011360665       -0.0014040720
  H         0.0002673662       -0.0003534361        0.0015544138
      18
 i =        7, time =        3.500, E =         0.0290671066
  C         0.0002222920        0.0001785177       -0.0003193935
  H        -0.0001534810       -0.0006402292       -0.0002212989
  H        -0.0005971624       -0.0002252004        0.0004357169
  C        -0.0004786404       -0.0002014340        0.0001326645
  H        -0.0005766402       -0.0005860485        0.0000472378
  H        -0.0002505003       -0.0005476174        0.0000742562
  C         0.0001359397        0.0001675950       -0.0005074998
  H        -0.0011530907       -0.0006656651        0.0001838825
  H        -0.0010889293       -0.0005432177       -0.0002488706
  C         0.0001985223       -0.0000375243        0.0004077313
  H        -0.0009329384        0.0004262520       -0.0006688856
  H        -0.0002819609       -0.0009163145        0.0005686533
  C         0.0001442372       -0.0000257674        0.0000198558
  H         0.0005904176        0.0012466459        0.0011210555
  H        -0.0005047770        0.0006390397       -0.0000441906
  C         0.0002297273        0.0000011853        0.0001453193
  H        -0.0007351034        0.0011378261       -0.0013769384
  H         0.0002977979       -0.0003092926        0.0015749013
      18
 i =        8, time =        4.000, E =         0.0270038980
  C         0.0002556313        0.0001933443       -0.0003093853
  H         0.0000173057       -0.0007043827       -0.0002245602
  H        -0.0005034150       -0.0001442502        0.0002056665
  C        -0.0005410565       -0.0002404797        0.0001503268
  H        -0.0005836984       -0.0005522886        0.0001061636
  H        -0.0001926573       -0.0003494512       -0.0001029153
  C         0.0001284914        0.0001766397       -0.0005622431
  H        -0.0013236941       -0.0006665763        0.0000521664
  H        -0.0011123202       -0.0006211971       -0.0001618932
  C         0.0002274075       -0.0000281079        0.0004698475
  H        -0.0009123869        0.0003415774       -0.0006597853
  H        -0.0002837400       -0.0009697869        0.0005085341
  C         0.0001408084       -0.0000107667        0.0000231730
  H         0.0005129438        0.0011648087        0.0012177615
  H        -0.0004605797        0.0006041371       -0.0000530488
  C         0.0002330998       -0.0000060969        0.0001320558
  H        -0.0007793727        0.0011303500       -0.0013297648
  H         0.0003269441       -0.0002401212        0.0015881692
      18
 i =        9, time =        4.500, E =         0.0254010934
  C         0.0002679204        0.0002003496       -0.0002893970
  H         0.0001966020       -0.0007558260       -0.0002368485
  H        -0.0003910595       -0.0000312657       -0.0000608831
  C        -0.0005842327       -0.0002749648        0.0001607381
  H        -0.0005919438       -0.0005155798        0.0001674375
  H        -0.0001389505       -0.0001596741       -0.0002690646
  C         0.0001227776        0.0001769914       -0.0006110805
  H        -0.0014679935       -0.0006427129       -0.0000561335
  H        -0.0011335549       -0.0006673875       -0.0000752607
  C         0.0002497712       -0.0000217070        0.0005179786
  H        -0.0008598098        0.0002812245       -0.0005890614
  H        -0.0002894999       -0.0009650316        0.0004601538
  C         0.0001359048        0.0000158497        0.0000232419
  H         0.0004765394        0.0010512467        0.0012567348
  H        -0.0004022383        0.0005154339       -0.0000618662
  C         0.0002335480       -0.0000186104        0.0001263126
  H        -0.0008254030        0.0011109145       -0.0012682788
  H         0.0003553586       -0.0001495959        0.0015933859
      18
 i =       10, time =        5.000, E =         0.0243419324
  C         0.0002690388        0.0002023834       -0.0002634944
  H         0.0003774164       -0.0007936795       -0.0002624343
  H        -0.0002640187        0.0001008186       -0.0003470309
  C        -0.0006164947       -0.0003056846        0.0001657232
  H        -0.0006043153       -0.0004762266        0.0002292535
  H        -0.0000940255        0.0000096675       -0.0004082775
  C         0.0001192034        0.0001681484       -0.0006532930
  H        -0.0015845145       -0.0005926609       -0.0001373138
  H        -0.0011533519       -0.0006778831        0.0000090693
  C         0.0002650387       -0.0000182877        0.0005510675
  H        -0.0007739404        0.0002460523       -0.0004558965
  H        -0.0002992664       -0.0009027162        0.0004249541
  C         0.0001273667        0.0000470393        0.0000282456
  H         0.0004822388        0.0009093767        0.0012385561
  H        -0.0003324389        0.0003815058       -0.0000708829
  C         0.0002329317       -0.0000296548        0.0001204289
  H        -0.0008688911        0.0010766284       -0.0011983350
  H         0.0003839716       -0.0000427542        0.0015898262
