#     Step Nr.          Time[fs]        Kin.[a.u.]          Temp[K]            Pot.[a.u.]        Cons Qty[a.u.]        UsedTime[s]
         0            0.000000         0.020027536       263.507834953         0.037832832         0.057860368         0.000000000
         1            0.500000         0.019325497       254.270922656         0.038543294         0.057868792         0.010815483
         2            1.000000         0.019401065       255.265182541         0.038469744         0.057870808         0.005284053
         3            1.500000         0.020284467       266.888351871         0.037580813         0.057865280         0.005291246
         4            2.000000         0.021887525       287.980224231         0.035965274         0.057852799         0.005074808
         5            2.500000         0.024013358       315.950403513         0.033822285         0.057835643         0.005016211
         6            3.000000         0.026392106       347.248246859         0.031425122         0.057817227         0.004900065
         7            3.500000         0.028734098       378.062488357         0.029067107         0.057801205         0.004886167
         8            4.000000         0.030986051       407.692050421         0.027003898         0.057989949         0.007214606
         9            4.500000         0.032584815       428.727434868         0.025401093         0.057985908         0.004596046
        10            5.000000         0.033646082       442.690826450         0.024341932         0.057988015         0.004569297
