      18
 i =        0, time =        0.000, E =         0.0263238206
  C         0.0454421982        0.0411806116       -0.0179951651
  H        -0.0012663936       -0.0096778099       -0.0040815182
  H        -0.0053309739       -0.0190067710        0.0151454908
  C        -0.0295094212       -0.0131186058       -0.0096541213
  H        -0.0074891822        0.0003626177        0.0003982681
  H        -0.0046681617       -0.0034761184        0.0140885696
  C         0.0144136359        0.0163219507       -0.0429583398
  H        -0.0180953094       -0.0010538509       -0.0059125083
  H        -0.0104828671       -0.0047628717        0.0044157990
  C         0.0261935392        0.0073731472        0.0550935826
  H        -0.0043861813       -0.0012000598       -0.0065540912
  H        -0.0002074408       -0.0164330228       -0.0050328323
  C         0.0019643245       -0.0098810460       -0.0086977092
  H        -0.0109304063        0.0070294231        0.0158860223
  H        -0.0007581342        0.0201496534       -0.0019496246
  C         0.0010165386       -0.0086634897        0.0063561494
  H         0.0021772943        0.0032675776       -0.0134110479
  H         0.0019169406       -0.0084113352        0.0048630761
