       0       0.000         0.026323821         0.028672597         0.017163838         0.025455189         0.046351356
       1       0.500         0.026861030         0.029564605         0.017724510         0.026298823         0.046358274
       2       1.000         0.027092806         0.029991310         0.017980299         0.026741191         0.046361865
       3       1.500         0.026962740         0.029890288         0.017874763         0.026718654         0.046360905
       4       2.000         0.026487177         0.029276379         0.017424415         0.026243087         0.046355461
       5       2.500         0.025753807         0.028240483         0.016717283         0.025400789         0.046346924
       6       3.000         0.024899451         0.026927380         0.015890678         0.024330467         0.046337610
       7       3.500         0.024073396         0.025498896         0.015094479         0.023186641         0.046330048
       8       4.000         0.023397447         0.024093609         0.014451151         0.022099623         0.046326188
       9       4.500         0.022935138         0.022795514         0.014024906         0.021144498         0.046326786
      10       5.000         0.022679733         0.021621315         0.013809648         0.020328749         0.046331173
