#     Step Nr.          Time[fs]        Kin.[a.u.]          Temp[K]            Pot.[a.u.]        Cons Qty[a.u.]        UsedTime[s]
         0            0.000000         0.020027536       263.507834953         0.026323821         0.046351356         0.000000000
         1            0.500000         0.019497245       256.530649058         0.026861030         0.046358274         0.010192412
         2            1.000000         0.019269059       253.528350268         0.027092806         0.046361865         0.004585492
         3            1.500000         0.019398165       255.227034435         0.026962740         0.046360905         0.004593525
         4            2.000000         0.019868284       261.412516805         0.026487177         0.046355461         0.004412984
         5            2.500000         0.020593117       270.949348773         0.025753807         0.046346924         0.004404115
         6            3.000000         0.021438159       282.067792105         0.024899451         0.046337610         0.004328687
         7            3.500000         0.022256651       292.836926001         0.024073396         0.046330048         0.004260172
         8            4.000000         0.022928741       301.679797007         0.023397447         0.046326188         0.004194452
         9            4.500000         0.023391649       307.770400141         0.022935138         0.046326786         0.004105753
        10            5.000000         0.023651439       311.188536736         0.022679733         0.046331173         0.004118535
